% Model:              AxialGradingFinal.mph
% Version:            COMSOL 4.3.2.164
% Date:               Mar 14 2014, 12:47
% Dimension:          2
% Nodes:              1031
% Expressions:        1
% Description:        Electric field norm
% Length unit:        mm
% r                       z                        es.normE (V/m)
49.79959522074166         3000                     3.773808772757662E-7
50                        3000                     9.610960183499514E-7
0                         3000                     6.706169257832576E-8
20.262590367308114        3000                     1.7670603432702158E-8
52.000000000000014        3000                     1.4412751107982222E-6
52.099999999999994        3000                     5.960775995349327E-7
55.1533063113609          3000                     19.439515532204886
55.253306311360895        3000                     4439066.492600565
58.4572875650347          3000                     25.423874462369763
58.5572875650347          3000                     4231774.607567138
61.9162530407954          3000                     4002205.034629834
62.01625304079541         3000                     23.689449008780077
65.5344368139341          3000                     24.293411693342378
65.63443681393407         3000                     3850239.023812395
69.3159812265738          3000                     3645750.529057245
69.41598122657379         3000                     22.09789627002111
73.2649197143729          3000                     20.408254302805407
73.36491971437287         3000                     3516471.9161665156
77.38515902441303         3000                     3333787.9385287273
77.485159024413           3000                     20.710095666115695
81.6804608651795          3000                     20.56916927723676
81.78046086517949         3000                     3224015.1612027166
86.1544230347219          3000                     19.72116177837891
86.2544230347219          3000                     3091949.0460100803
90.8104600782882          3000                     2936824.7625406194
90.9104600782882          3000                     20.157549991962817
95.6517835319383          3000                     18.73650109133977
95.75178353193829         3000                     2852974.8716571457
100.68138181381599        3000                     2713285.952331927
100.781381813816          3000                     17.53416787654347
105.90199982987303        3000                     2611388.5777639155
106.001999829873          3000                     16.960822862327063
111.316118365835          3000                     17.420380008529314
111.41611836583499        3000                     2547593.2262461297
116.92593334207199        3000                     2427547.109976856
117.02593334207201        3000                     16.784373920725823
122.73333501271799        3000                     2344877.7111410815
122.833335012718          3000                     15.994136849956123
128.739887194838          3000                     15.88391656085657
128.83988719483798        3000                     2298637.6721359915
134.94680661765898        3000                     15.61702746378443
135.046806617659          3000                     2226861.3278104053
141.354942485772          3000                     14.384323220079489
141.45494248577197        3000                     2160152.444682343
147.96475635380003        3000                     2065115.715433321
148.06475635380005        3000                     0
150                       3000                     0
150.94589563121627        3000                     0
49.35856015065792         3000                     2.8115454709698567E-7
48.838640858205274        3000                     1.3690441846847534E-7
48.428512036126115        3000                     2.5398312380485743E-7
46.725921140267374        3000                     2.768911448674532E-7
46.702686118950126        3000                     4.3213367462158203E-7
44.11346785005828         3000                     1.8969740057697915E-7
46.674822055813905        3000                     4.174985207951635E-7
36.61960574367133         3000                     5.967009246215726E-8
35.13050628349407         3000                     5.122274160385132E-8
34.605840423715435        3000                     4.185774373681141E-8
20.472862000221575        3000                     1.666000468656264E-8
23.960704035892082        3000                     1.2600849501541638E-8
151.90966501719114        3000                     0
153.123429964014          3000                     0
153.9271199142358         3000                     0
154.33632394586945        3000                     0
156.3023146876296         3000                     0
158.56535387389997        3000                     0
158.74649669425025        3000                     0
162.2202640980498         3000                     0
163.50521164821458        3000                     0
169.50889985843259        3000                     0
169.5304763497276         3000                     0
169.53576859441344        3000                     0
176.93672918308198        3000                     0
179.68140629832948        3000                     0
188.71638425012543        3000                     0
189.84218664401513        3000                     0
191.849696879202          3000                     0
200.06351788143425        3000                     0
204.36509866844872        3000                     0
498.0859854934563         3000                     0
500                       3000                     0
496.88608755692206        3000                     0
212.55579246017425        3000                     0
216.9814107960431         3000                     0
222.80861299185338        3000                     0
496.4256271426978         3000                     0
494.32778621556247        3000                     0
230.89670874101432        3000                     0
240.56793129659218        3000                     0
493.2684606694367         3000                     0
489.6491406067766         3000                     0
259.5088045552715         3000                     0
266.62708388722706        3000                     0
252.2362789660899         3000                     0
245.9984255196302         3000                     0
486.57994778880106        3000                     0
481.4821955493646         3000                     0
271.33556009956914        3000                     0
286.6799066213823         3000                     0
286.8220101305301         3000                     0
471.171087372523          3000                     0
477.56767726747665        3000                     0
464.667396849344          3000                     0
442.1967204804359         3000                     0
452.1639984508459         3000                     0
287.2591263982508         3000                     0
306.8875606036559         3000                     0
312.05128425142743        3000                     0
303.092915321822          3000                     0
326.2201880123085         3000                     0
335.99119895894495        3000                     0
432.5820985026725         3000                     0
418.7348576669674         3000                     0
392.0203760595263         3000                     0
406.4383203496551         3000                     0
369.6781498797582         3000                     0
381.3571359846891         3000                     0
358.19818580492444        3000                     0
347.36869715397233        3000                     0
412.5458175854466         3000                     0
52.28325431004403         3000                     4653461.61074399
50.10010124069705         3000                     5.057621821307283E-7
105.80520951112753        3000                     2613777.97144174
134.87960284931037        3000                     2195708.3726452757
141.24590780589867        3000                     2129127.394047334
149.49296425239953        3000                     1.9601457325216086E-14
53.797284603299595        3000                     4522490.765559058
53.81977504413595         3000                     4520597.539752054
53.784615429628204        3000                     4523541.409451485
53.51224352797633         3000                     4546565.3271531705
53.55768300423393         3000                     4542725.100282145
53.509682998155924        3000                     4546791.39624019
54.033121498012164        3000                     4502742.091887408
54.15341764746086         3000                     4492754.815082644
54.2249761586319          3000                     4486819.883157965
54.33466965169914         3000                     4477764.488298957
57.33974254429562         3000                     4277546.962655444
57.35544550947526         3000                     4276369.304079499
57.12010319754758         3000                     4293987.007970782
57.26218106906965         3000                     4283347.949387526
57.384029270793995        3000                     4274245.691285574
53.30311280696683         3000                     4564415.158583136
53.47439139114712         3000                     4549802.703331006
51.347817443681876        3000                     3.242843272384511E-6
51.48854214240363         3000                     3.724217260316207E-6
51.33710808705028         3000                     3.7031709115526835E-6
54.37794452873588         3000                     4474202.777321355
54.47026127667965         3000                     4466616.803288573
57.08173243213302         3000                     4296878.103421596
56.922193096146316        3000                     4308922.179716559
51.3187301102275          3000                     2.081900739261267E-6
51.168829922764964        3000                     3.198720899820027E-6
51.086361701835855        3000                     3.390660918552373E-6
57.5517987610318          3000                     4261782.433141955
57.70106649971887         3000                     4250759.801744308
53.11172030889679         3000                     4580862.369875812
53.276444668961034        3000                     4566706.88707964
51.620604685641354        3000                     4.554980558047962E-6
51.62416257732015         3000                     5.057621821307284E-6
53.024155284110336        3000                     4588426.577868212
54.60614343686254         3000                     4455502.114028148
54.61549639709644         3000                     4454736.4135328615
56.748331880558666        3000                     4322128.290464246
56.680004953420465        3000                     4327333.896118048
50.91156078202502         3000                     4.915124923727108E-7
51.00641493365871         3000                     2.0230487285229133E-6
60.53804718701528         3000                     4093307.431001486
60.576330247979016        3000                     4090733.2744353893
57.714099365826826        3000                     4249798.170749645
57.731894954860344        3000                     4248491.9145980645
57.85641670541449         3000                     4239345.801192146
60.47327041962531         3000                     4097706.87055068
60.281120496466485        3000                     4110756.188103666
52.79462674173427         3000                     4608384.289975884
51.62995244434886         3000                     6.778177726664305E-6
51.74913886753379         3000                     5.7220458984375E-6
52.750267058983795        3000                     4612249.284990294
54.62326909140694         3000                     4454105.087330308
54.75330993109792         3000                     4443527.567692254
56.43824557235742         3000                     4345871.140964299
56.46613797414522         3000                     4343719.531698874
63.93193349670255         3000                     3912790.737255313
64.00223918960141         3000                     3908491.504811818
64.15227624013102         3000                     3899350.4465667256
50.77515702699221         3000                     8.642673492431641E-7
50.72770815546389         3000                     5.960464477539062E-7
60.78185183295326         3000                     4076893.828275057
60.82423531979734         3000                     4074059.1037149173
63.71300706217378         3000                     3926233.444094298
63.7944591256539          3000                     3921225.207722153
57.96349834836094         3000                     4231516.957012521
57.9873891190622          3000                     4229770.128733474
60.02647345068287         3000                     4128197.063586868
60.096586689400816        3000                     4123392.094185116
59.97189556384326         3000                     4131963.8669267423
52.700512485234086        3000                     4616618.713789055
52.54263038746652         3000                     4630477.742643339
51.81105331931349         3000                     9.5367431640625E-7
51.87061407941928         3000                     5.545554776766418E-7
54.81790171573571         3000                     4438293.123786453
54.91126079125485         3000                     4430746.38870677
56.12553124364596         3000                     4370068.038510841
56.11482515296246         3000                     4370895.141351238
56.11395173347434         3000                     4370981.313379052
64.2276816992653          3000                     3894773.923544006
64.34227423160162         3000                     3887836.7702970933
50.6980974659525          3000                     2.524768606860399E-6
50.56441420301882         3000                     3.015782985847835E-6
50.50960969972803         3000                     2.770814728538861E-6
61.0385030735433          3000                     4059758.1959652216
61.069381810885695        3000                     4057702.871786412
61.104078501442736        3000                     4055402.3259050967
63.53752259066529         3000                     3937078.3030932797
63.48902841422241         3000                     3940084.4152010623
58.004618661196936        3000                     4228516.847630262
58.1142985466163          3000                     4220534.551967175
59.77785224039799         3000                     4145369.706995321
59.67235852011236         3000                     4152706.437684026
52.4152229396727          3000                     4641748.973942928
52.343786811821246        3000                     4648067.05093716
54.96686530167173         3000                     4426265.960519063
55.037897600413544        3000                     4420550.015222144
56.11268438766386         3000                     4371076.115306143
55.87984453602865         3000                     4389294.665112721
55.757004626432234        3000                     4398971.932435644
64.43862680840161         3000                     3882023.8904331415
64.53694023749198         3000                     3876107.233897561
67.58523018799121         3000                     3739114.440995484
67.74118383461136         3000                     3730500.1644227053
67.54062499126407         3000                     3741577.688683483
50.44325401079666         3000                     2.291886272321943E-6
50.33226069465753         3000                     2.6973983046972182E-6
61.26129895716967         3000                     4044989.1567537445
61.30368308343414         3000                     4042196.6330568283
61.36270903570599         3000                     4038311.2041874644
63.25820075897728         3000                     3954457.1143736276
63.25626895617427         3000                     3954581.6404007273
63.25336675123372         3000                     3954762.0072797267
58.194341443633554        3000                     4214732.497268671
58.23044166041582         3000                     4212116.585775009
59.54070909756223         3000                     4161878.5641667885
59.36121589867336         3000                     4174467.991288433
55.64061537787349         3000                     4408173.176708362
55.453256218250814        3000                     4423061.286155227
67.81941120349721         3000                     3726204.932996934
67.93387441557392         3000                     3719919.556819749
64.71789400587384         3000                     3865267.8249781122
64.72115975877504         3000                     3865075.368975916
64.76456144744634         3000                     3862489.0167008443
64.88688474458338         3000                     3855205.9775730497
67.33355703701129         3000                     3753083.7625809656
67.5182780179607          3000                     3742818.787483818
67.17369027966349         3000                     3762021.3676397167
67.0937648191694          3000                     3766495.2298833863
50.29683907354328         3000                     5.331201499700045E-7
61.44353246536706         3000                     4032995.3234520103
61.526899699494905        3000                     4027531.7965268907
63.035923509499995        3000                     3968403.632492252
62.92512201177823         3000                     3975395.0011201994
58.28900449289598         3000                     4207888.023999571
58.331754394337075        3000                     4204800.560835566
59.28012462625022         3000                     4180173.7107839286
59.062539756121005        3000                     4195571.805335108
71.78459977439672         3000                     3557690.3524905466
71.9337308562516          3000                     3550318.8347883625
68.05484779800163         3000                     3713313.1026153984
68.12139059875176         3000                     3709681.357052222
68.25112764869209         3000                     3702633.77903724
68.31534363211577         3000                     3699151.701169872
68.4540767264761          3000                     3691652.476257334
68.52243673122676         3000                     3687973.029416897
68.56006161312956         3000                     3685947.3075539437
71.66433781212153         3000                     3563664.0663512493
71.56932282446574         3000                     3568392.607104632
64.72308569185384         3000                     3864959.204657116
64.89515303873601         3000                     3854715.167276455
64.99937396786943         3000                     3848533.72580126
66.83158932153181         3000                     3781273.065618159
66.84943118163207         3000                     3780261.5588655053
61.5971199157308          3000                     4022942.759064907
61.64561252332591         3000                     4019775.104686084
62.74060157447727         3000                     3987087.7442655223
62.6603537815134          3000                     3992189.928969369
58.80237930331364         3000                     4214132.751423568
58.96881646734706         3000                     4202250.221748007
71.998683901915           3000                     3547112.0823857966
72.0811850427793          3000                     3543056.634615529
72.1694875938888          3000                     3538718.437873261
68.29706292288455         3000                     3700137.9178839824
68.64240042411812         3000                     3681528.5428252146
68.6958892572373          3000                     3678658.0301489974
71.37752214100223         3000                     3577982.2288465546
71.28799329296885         3000                     3582474.3744591884
65.08729687713536         3000                     3843335.148093181
65.10130957932749         3000                     3842506.837035772
66.81075337602263         3000                     3782453.7129285107
66.60595121807654         3000                     3794082.777956998
61.70495957923752         3000                     4015912.2251281985
61.77067932924724         3000                     4011635.8643080373
62.443275528386216        3000                     4006070.5134943887
62.42267680556292         3000                     4007390.3612454375
72.27730177572462         3000                     3533441.5141054215
72.33034762434694         3000                     3530849.2692164015
72.42936271156134         3000                     3526022.8859211667
75.23982375099237         3000                     3428841.1240134602
75.43204297457491         3000                     3420110.2907443387
68.7179548677562          3000                     3677477.750916289
68.8519647696304          3000                     3670318.7717869496
71.0469477490755          3000                     3594629.386085628
70.95493610023655         3000                     3599286.319987554
70.84415873886718         3000                     3604925.782560655
65.22022976038795         3000                     3835502.4770861403
65.25125815509026         3000                     3833675.9868020667
66.52094111648913         3000                     3798936.7678016466
66.38534222465145         3000                     3806693.133478099
62.21593583125484         3000                     4020706.5460407306
62.41621451446175         3000                     4007805.3966487213
75.53438943249586         3000                     3415471.4332463057
75.73010139776683         3000                     3406646.2267474215
75.76190480678709         3000                     3405217.034505232
75.93363451074624         3000                     3397514.4346614257
76.07860315660807         3000                     3391044.0888630017
76.14643667548285         3000                     3388021.063311647
72.4585150300012          3000                     3524604.604979236
72.55229041174647         3000                     3520048.8079672926
75.07145032375435         3000                     3436540.3914409876
74.98983793612447         3000                     3440274.4692439605
68.98405012350467         3000                     3663292.919448628
68.99364998382767         3000                     3662782.5265674256
70.6058144944333          3000                     3617078.09524501
70.46498233348542         3000                     3624320.618330907
65.28801592404122         3000                     3831520.5962758134
65.39055695789749         3000                     3825509.3863885337
66.13806357742888         3000                     3820919.999475319
66.18819920979539         3000                     3818035.8522207956
79.62690982221564         3000                     3273864.1796479253
79.72930519045426         3000                     3269655.787809876
80.00290119882597         3000                     3258472.7187728924
76.31664415738544         3000                     3380464.182514762
76.34819564155616         3000                     3379069.300356398
79.39600796439595         3000                     3283382.540786763
79.39176416542281         3000                     3283556.428691554
72.60320120076565         3000                     3517579.963977611
72.71486374015096         3000                     3512178.9693982457
72.74196038887355         3000                     3510869.7023741174
74.71418578658482         3000                     3452967.5618516887
74.92269545000005         3000                     3443361.0177905173
74.5892999593923          3000                     3458753.551396374
69.00412147823539         3000                     3662227.1844458566
69.11196796775954         3000                     3656511.8843398253
70.1615189850104          3000                     3639990.666990088
70.30488003485432         3000                     3632571.768727538
66.0608144424629          3000                     3825400.426289939
65.89565405500548         3000                     3834978.0007983185
80.01143581246357         3000                     3258128.044129059
80.01793934121866         3000                     3257863.6418211507
80.24433758694558         3000                     3248672.8258697186
80.400146429876           3000                     3242378.6052886695
83.93551279508932         3000                     3141236.330240837
84.06096430419888         3000                     3136552.284198616
76.49962624656854         3000                     3372378.394069426
76.58446230667663         3000                     3368645.608452373
79.12057831688031         3000                     3294810.678564482
79.11597635919179         3000                     3294999.687197671
79.1041390821309          3000                     3295495.7946053883
72.75593758431947         3000                     3510195.0174089717
72.87155113196738         3000                     3504626.8031867556
72.9036986648004          3000                     3503081.0040960987
74.52121241475913         3000                     3461909.44575032
74.29661049313108         3000                     3472375.4495100444
74.35037354509791         3000                     3469867.5789769236
69.16144279276689         3000                     3653898.331662382
69.20258241620022         3000                     3651724.9530508
69.90732896932633         3000                     3653223.0179481483
69.97386807240947         3000                     3649758.52441294
84.17444196557193         3000                     3132318.3507595854
84.21656297793267         3000                     3130754.941596489
84.37999426172931         3000                     3124687.5456492463
84.54188775938718         3000                     3118708.764248272
84.61489811236336         3000                     3116011.915333136
80.42581781868347         3000                     3241341.3862263565
80.4650365600105          3000                     3239765.2316055503
80.61412873634463         3000                     3233770.37610971
80.72871744358528         3000                     3229183.939477596
83.91268535546921         3000                     3142084.3115733657
83.60500355905022         3000                     3153655.4294718797
76.62788428544012         3000                     3366734.868399741
76.77532129282231         3000                     3360269.165898429
78.8320170464349          3000                     3306871.0837984323
78.6344182253701          3000                     3315184.4704826074
78.72720992099966         3000                     3311282.0971497186
72.98553443653644         3000                     3499153.168125722
72.9994595734139          3000                     3498485.22560296
74.27783885542664         3000                     3473254.1388464295
74.06540072245754         3000                     3483212.447251339
69.81031271345917         3000                     3658312.3632064345
69.663788312535           3000                     3665997.1691992325
84.64917775684958         3000                     3114753.4740652447
84.9008994482982          3000                     3105514.70595588
88.25739529330588         3000                     3021777.6859759865
88.32326299516801         3000                     3019527.669109825
80.80095341593247         3000                     3226294.0948340623
80.86258558999683         3000                     3223836.7688378193
80.98008654794126         3000                     3219157.6444981303
83.5396164090881          3000                     3156118.0788056045
83.43788916309656         3000                     3159975.1344326776
83.25440715470569         3000                     3166931.947975772
76.80039463419554         3000                     3359172.9105345868
76.88107437795495         3000                     3355649.694259511
76.93713196443362         3000                     3353201.9959537582
76.95577977204798         3000                     3352391.147096573
78.41313746041975         3000                     3324538.248836064
78.46164608760422         3000                     3322487.9222570267
73.09918994096637         3000                     3493712.419285165
73.12895640880865         3000                     3492289.3114223666
73.85495519034687         3000                     3493140.875054921
73.83156540906643         3000                     3494248.6932137986
73.82582680530598         3000                     3494514.76442022
88.745388043095           3000                     3005161.565824408
88.91803554796363         3000                     2999331.348574636
88.63760528780293         3000                     3008819.66221271
84.93361927692271         3000                     3104321.943358668
85.11615890772335         3000                     3097662.6688036686
84.91188462963065         3000                     3105116.143932676
88.4904825161417          3000                     3013817.7020794544
85.23688497009678         3000                     3093277.982177318
88.02358101890397         3000                     3029804.5800681803
87.97025691076423         3000                     3031642.1577719385
81.06852813940421         3000                     3215646.0254988307
81.1781188403877          3000                     3211305.5791890468
83.0132742202082          3000                     3176131.4721365157
83.01244560783826         3000                     3176162.916399948
77.03295447661515         3000                     3349031.953928906
77.10232821252642         3000                     3346018.968428686
77.12747050375181         3000                     3344928.36729669
78.39300967945985         3000                     3325395.2344887718
78.12373938928384         3000                     3336857.5727613606
73.81664983745283         3000                     3494951.5866619493
73.60054202638048         3000                     3505213.643734188
89.04857924491276         3000                     2994929.6914270064