% Model:              AxialGradingFinal.mph
% Version:            COMSOL 4.3.2.164
% Date:               Mar 19 2014, 20:32
% Dimension:          2
% Nodes:              84
% Expressions:        4
% Description:        Electric field, r component, Electric field, z component, Electric field norm, Electric potential
% Length unit:        mm
% r                       z                        es.Er (V/m)              es.Ez (V/m)              es.normE (V/m)           V (V)
48.215857663322915        3000                     5.9604644775390625E-8    2.6637614535327317E-8    6.5286110214449E-8       275000.00000000006
50                        3000                     6.48200511932373E-7      0                        6.48200511932373E-7      275000.00000000006
0                         3000                     -6.51925802230835E-8     -2.2118911147117615E-9   6.523009258345812E-8     275000
9.583017513544123         3000                     -2.0489096641540527E-8   1.862645149230957E-8     2.7690210840326745E-8    275000.0000000005
52.000000000000014        3000                     1.430511474609375E-6     1.021400936535053E-7     1.4341532964507788E-6    275000
52.099999999999994        3000                     4674929.722997457        -2.9802322387695312E-8   4674929.722997457        274999.99999999994
55.1533063113609          3000                     4416156.360390693        -19.36065430379495       4416156.360433132        261126.1914857693
55.253306311360895        3000                     0.17774105072021484      -19.360654592514038      19.361470453758052       261126.19146804835
58.4572875650347          3000                     4200241.444401622        -23.535086834808133      4200241.4444675585       247283.5765313602
58.5572875650347          3000                     0.16936397552490234      -23.53508811444044       23.53569749785804        247283.57651448954
61.9162530407954          3000                     4001268.4556357563       -1048.8604416549206      4001268.5931056887       233457.96796171728
62.01625304079541         3000                     0.1614675521850586       -23.590127184987068      23.590679777706164       233457.96794563657
65.5344368139341          3000                     0.15279102325439453      -22.872241094708443      22.872751425905385       219647.7349239922
65.63443681393407         3000                     3849390.2080202624       900.3017562925816        3849390.313302294        219647.73490864356
69.3159812265738          3000                     0.1458733081817627       -22.076780177652836      22.07726210458274        205852.38945048838
69.41598122657379         3000                     3678236.2807993144       -22.076789274811745      3678236.280865567        205852.38943583824
73.2649197143729          3000                     3485023.781029761        -21.32329235225916       3485023.781094995        192071.48752118042
73.36491971437287         3000                     0.14073848724365234      -21.32329349964857       21.323757947274366       192071.48750717167
77.38515902441303         3000                     3333092.2009875327       -801.0532899349928       3333092.297247451        178304.5100251197
77.485159024413           3000                     0.1346302032470703       -20.62527660280466       20.62571599324076        178304.51001171875
81.6804608651795          3000                     0.1277484893798828       -19.97986836731434       19.980276766144833       164550.80346866863
81.78046086517949         3000                     3224397.640225202        -19.979875937104225      3224397.640287104        164550.80345582985
86.1544230347219          3000                     3060715.814290896        -19.38364722039806       3060715.814352275        150809.62889061114
86.2544230347219          3000                     0.12372684478759766      -19.383647944778204      19.384042818236484       150809.62887830194
90.8104600782882          3000                     2935959.034393117        -658.6243914365768       2935959.1082677995       137080.0081485484
90.9104600782882          3000                     0.11876106262207031      -18.834312666207552      18.834687090537535       137080.0081367353
95.6517835319383          3000                     0.11285114288330078      -18.31033881753683       18.310686578974753       123360.81523435419
95.75178353193829         3000                     2850991.432595197        560.5642735511065        2850991.4877045          123360.81522300778
100.68138181381599        3000                     0.10850381851196289      -17.833082884550095      17.83341297244768        109650.64363716375
100.781381813816          3000                     2743070.4003704414       -17.8330864533782        2743070.4004284088       109650.64362625201
105.90199982987303        3000                     2610449.0041743815       -17.374914461746517      2610449.0042322045       95947.81415822961
106.001999829873          3000                     0.10566139221191406      -17.374914593994617      17.375235868281365       95947.81414772486
111.316118365835          3000                     0.10062384605407715      -16.9409717079252        16.941270541701314       82250.33104156521
111.41611836583499        3000                     2545451.215478599        461.1737384721637        2545451.257255321        82250.33103144134
116.92593334207199        3000                     0.09706413745880127      -16.522812282666564      16.523097384419717       68555.81544362874
117.02593334207201        3000                     0.09814697504043579      -16.522814709693193      16.52310620796112        68555.81543385996
122.73333501271799        3000                     2342301.212136127        -452.63316080346704      2342301.2558702067       54861.363588320935
122.833335012718          3000                     0.0949854850769043       -16.129077283665538      16.129356969973447       54861.36357888502
128.739887194838          3000                     0.09062391519546509      -15.768367774784565      15.768628189378735       41163.51655167075
128.83988719483798        3000                     2296768.1261061076       -15.76836802996695       2296768.126160236        41163.51654254501
134.94680661765898        3000                     2192837.8680202905       -15.469156722072706      2192837.8680748534       27458.03431916919
135.046806617659          3000                     0.08902370929718018      -15.469156919047236      15.469413078941425       27458.03431033157
141.354942485772          3000                     0.08504319190979004      -14.3173381567467        14.317590727462676       13738.578516547253
141.45494248577197        3000                     2157911.200540598        338.7081893174909        2157911.2271226086       13738.578507977623
147.96475635380003        3000                     0                        0                        0                        0
148.06475635380005        3000                     -2.8224923112220443E-21  -4.778479742994562E-34   2.8224923112220443E-21   1.5373788081025145E-37
343.8524829690465         3000                     0                        0                        0                        0
377.64530581742287        3000                     0                        0                        0                        0
411.09456061806173        3000                     0                        0                        0                        0
455.75315060423503        3000                     0                        0                        0                        0
500                       3000                     0                        0                        0                        0
309.42804689900674        3000                     0                        0                        0                        0
309.4778512773135         3000                     0                        0                        0                        0
273.43189896678524        3000                     0                        0                        0                        0
273.61960080345534        3000                     0                        0                        0                        0
236.3371453789139         3000                     0                        0                        0                        0
237.1317057873309         3000                     0                        0                        0                        0
150                       3000                     1.5316447706463038E-21   2.705098162405522E-35    1.5316447706463038E-21   -1.760587907336029E-38
151.98410796259046        3000                     0                        0                        0                        0
46.832304597795904        3000                     -2.9802322387695312E-8   9.12696123123169E-8      9.601208544418121E-8     275000.0000000001
44.245965336765664        3000                     -2.9802322387695312E-8   -1.1175870895385742E-7   1.156641147752108E-7     275000.0000000001
43.266745479756665        3000                     7.450580596923828E-8     5.587935447692871E-9     7.47150596981182E-8      275000.0000000002
39.34597483654458         3000                     0                        -7.450580596923828E-9    7.450580596923828E-9     275000.0000000004
39.099198930255625        3000                     8.940696716308594E-8     6.984919309616089E-9     8.967940050570686E-8     275000.0000000004
38.55382918501856         3000                     3.91155481338501E-8      -2.9802322387695312E-8   4.9175243014261444E-8    275000.0000000004
34.921180675833995        3000                     1.816079020500183E-8     9.313225746154785E-10    1.818465459138773E-8     275000.0000000005
33.2089902354159          3000                     -7.450580596923828E-8    1.3620592653751373E-8    7.574058137725911E-8     275000.0000000004
28.49940208862305         3000                     2.421438694000244E-8     2.9802322387695312E-8    3.839941346661803E-8     275000.00000000064
25.001834679157422        3000                     -1.6763806343078613E-8   3.5390257835388184E-8    3.915987171536058E-8     275000.00000000064
17.951015380300177        3000                     -3.166496753692627E-8    2.60770320892334E-8      4.102050428380303E-8     275000.0000000005
234.20660685900035        3000                     0                        0                        0                        0
210.9865086013018         3000                     0                        0                        0                        0
205.1341997430608         3000                     0                        0                        0                        0
152.08467056518992        3000                     0                        0                        0                        0
189.223308522239          3000                     0                        0                        0                        0
189.97521354591044        3000                     0                        0                        0                        0
155.58192612551383        3000                     0                        0                        0                        0
155.59837436722063        3000                     0                        0                        0                        0
185.1267907578565         3000                     0                        0                        0                        0
173.92668302915263        3000                     0                        0                        0                        0
155.61115564239458        3000                     0                        0                        0                        0
162.44450329473642        3000                     0                        0                        0                        0
172.3448474270393         3000                     0                        0                        0                        0
162.73271121351263        3000                     0                        0                        0                        0
