% Model:              AxialGradingFinal.mph
% Version:            COMSOL 4.3.2.164
% Date:               Mar 19 2014, 20:33
% Dimension:          2
% Nodes:              193
% Expressions:        4
% Description:        Electric field, r component, Electric field, z component, Electric field norm, Electric potential
% Length unit:        mm
% r                       z                        es.Er (V/m)              es.Ez (V/m)              es.normE (V/m)           V (V)
49.78994502272196         500                      5.9604644775390625E-8    9.685754776000977E-8     1.1372817696983924E-7    274999.99999999994
50                        500                      425205.451192379         2.322675171081569E-7     425205.451192379         275000
0                         500                      -3.91155481338501E-8     -2.7939677238464355E-9   3.9215205742842144E-8    275000
10.135156941778384        500                      -2.2351741790771484E-8   -1.4901161193847656E-8   2.6863450374185958E-8    275000.00000000023
52.000000000000014        500                      -1217668.369533062       -7268366.433195591       7369658.531123793        274999.99995392194
52.099999999999994        500                      8052244.379383087        -7841589.419299364       1.1239624734223748E7     275000
48.4274842033595          500                      1.1920928955078125E-7    -3.129243850708008E-7    3.348619498944913E-7     275000.00000000023
47.62742051036636         500                      -5.9604644775390625E-8   -2.384185791015625E-7    2.457562461863554E-7     275000.00000000023
46.61711081007104         500                      4.470348358154297E-8     -3.2782554626464844E-7   3.3085947202406106E-7    275000.00000000035
17.61627211020385         500                      4.470348358154297E-8     -2.9802322387695312E-8   5.3726900748371916E-8    275000.0000000003
45.45386532546052         500                      -1.4901161193847656E-8   -2.1606683731079102E-7   2.1658006092531433E-7    275000.00000000035
22.7643246729698          500                      3.050081431865692E-8     2.0954757928848267E-9    3.057271157257323E-8     275000.0000000002
44.16056253675666         500                      -1.4901161193847656E-7   -1.1175870895385742E-8   1.494301193962364E-7     275000.0000000002
24.523063422612616        500                      -7.450580596923828E-9    -2.9336661100387573E-8   3.026798367500305E-8     275000.0000000002
41.86224301546515         500                      -7.078051567077637E-8    -3.725290298461914E-8    7.998537478440958E-8     275000
40.84899062678769         500                      -2.9802322387695312E-8   -1.4901161193847656E-8   3.332000937312528E-8     274999.99999999994
39.80226294532            500                      4.0978193283081055E-8    -8.614733815193176E-9    4.187392940066865E-8     275000
27.6261672872591          500                      -1.4901161193847656E-8   -2.9802322387695312E-8   3.332000937312528E-8     275000.0000000001
30.66516355427671         500                      -3.4458935260772705E-8   -5.21540641784668E-8     6.2509716281853E-8       275000.00000000023
33.519168059819805        500                      4.470348358154297E-8     -3.213062882423401E-8    5.5052509052412674E-8    275000.0000000001
36.50252293554766         500                      -5.9604644775390625E-8   -3.725290298461914E-8    7.028863677424642E-8     274999.99999999994
146.91843841823777        500                      1004695.3345046733       140112.202983357         1014418.1310486848       146504.31118355403
150                       500                      976891.642760396         139833.9034089744        986848.9257417751        143451.1200335238
105.55555555555559        500                      889423.6370047331        274616.250394471         930853.6356718203        197724.53773152598
105.63505270276559        500                      1533913.056020908        131159.09384871647       1539510.3024438056       197602.54035064523
153.77722861587017        500                      946325.2293728776        139274.6372041646        956519.1395450386        139819.40739231702
459.0432020169631         500                      219131.83729342866       15294.931146254545       219664.96542316975       8493.690158726782
500                       500                      195728.19591355405       1.2275384222741077E-10   195728.19591355405       1.3581371854473197E-11
142.9605562645668         500                      1040296.6608000032       140851.33560871938       1049788.6650247262       150551.215869522
138.72846163689823        500                      1082809.873594949        141317.10142639652       1091992.5574427089       155043.49342511743
128.7319145865041         500                      1191441.5715781078       140951.85289503168       1199750.1587076595       166398.6015994035
133.06780916780167        500                      1142916.6730199568       140866.18325757398       1151564.936533135        161337.84352636826
125.71964374494709        500                      1229546.097164072        140578.17075403593       1237556.3935206963       170045.48514947377
122.79156877592158        500                      1266571.4212482907       139906.72191402316       1274275.109997697        173699.44966636912
135.8808418465339         500                      1111241.3674404286       141235.28379448282       1120180.6917186985       158167.33341094723
118.74514334927575        500                      1322230.4671894908       138619.41860811925       1329476.8713969386       178936.9462229811
118.61810229749133        500                      1323827.0366695914       138579.91320858523       1331060.6354942252       179105.03442218373
112.24931543590253        500                      1420804.9689901546       135803.78838448972       1427280.4310459432       187839.2768210643
114.41077271713465        500                      1386047.83080744         136903.11079043895       1392792.53696669         184805.8113734154
118.37462835352858        500                      1327445.8442986459       138449.91457078606       1334646.3383197822       179427.79235460912
109.98617514904882        500                      1457210.3837539777       134431.66089764424       1463398.091420142        191095.96268057052
158.28613485017794        500                      909931.1408608966        138077.2316700454        920347.7619976463        135634.9425508752
162.1704892915156         500                      881956.3268422196        136877.87685685977       892514.7145172799        132154.7610782662
166.3916688970893         500                      851509.319256247         135843.21615643415       862276.927765066         128496.12616212947
170.11775535082603        500                      827423.4680548385        134806.8908656027        838333.1636722639        125368.15812668236
174.09814562116955        500                      801334.2360604294        133511.68101427378       812380.407721536         122126.23274932813
181.8753960675199         500                      755916.0161526613        130356.04495296162       767073.4788349087        116070.67013977651
184.01182705743363        500                      743872.6396018099        129722.38962152228       755098.9354497079        114468.24681926088
186.85807702235505        500                      729078.6465573511        128408.58046023431       740300.2339603247        112372.2295952111
194.49967821075003        500                      689660.6144645195        125353.51211452275       700960.245765068         106952.11400863658
201.8134601789273         500                      656150.0952524096        122328.63216755306       667455.7975984107        102030.63095798282
206.43861041198934        500                      633477.7101547895        119966.1230486799        644737.0626404895        99042.2758859364
231.27275634537187        500                      542285.6108425763        110097.51273210533       553349.0273206434        84442.73693755285
233.82792216830273        500                      534248.8658347898        107399.33807547961       544937.123404903         83065.65716498635
236.48933876275478        500                      525095.3605817202        105423.54346082313       535573.7682339221        81656.68774692621
274.18991792760494        500                      425031.5680091535        88658.36753270583        434179.8474571154        63746.52000292808
324.72625196069635        500                      335912.2350802396        64364.63791282225        342023.1516875003        44518.614114545635
356.33462124064414        500                      300607.39189877594       49161.10872429202        304600.7529130319        34497.79594515307
300.2579951250597         500                      378372.7736482059        76530.1213253988         386034.73329263617       53265.93417953899
401.58659520447264        500                      251391.35996017954       32931.94238205314        253539.2054331705        21992.080349293494
105.40023606828592        500                      891303.7541359849        274452.74951513857       932602.1090761696        197862.82977659735
50.04286123173518         500                      459571.74262690544       -31033.074881196022      460618.3217781426        274981.910042958
102.36841007015653        500                      928188.1924596801        270722.92411601543       966863.0835146692        200621.014714125
100.53371675713217        500                      952040.7649426796        268315.9708197266        989128.4437875472        202345.8746683268
99.60307499303619         500                      963994.7985780984        266977.62595128454       1000281.4726086915       203237.44602677965
96.31721851097237         500                      1009471.3711053357       262139.80515447631       1042952.4085631679       206479.57456901763
98.65364655205912         500                      977099.695329614         265602.04028098285       1012555.3112865713       204158.97223802703
93.3198138512814          500                      1054206.866490513        257215.88934207708       1085132.3104054097       209571.7604467093
94.26049822042995         500                      1039670.4256458282       258921.39852832258       1071426.5651823462       208586.88445851643
91.6369274748283          500                      1080149.4955883808       254148.35486476868       1109646.0332467747       211367.78077455756
88.87920631119965         500                      1125957.386200115        248522.50753090158       1153058.3126139122       214409.65496207675
84.26863685279045         500                      1210063.5214426294       237265.3982718431        1233105.2652321428       219791.08873097712
85.96590958313745         500                      1177515.2592017949       241753.2206813842        1202076.0397590878       217764.80424897783
88.7002963999759          500                      1128986.2703304589       248109.36363216862       1155927.4436211989       214611.36417858084
83.58875366103625         500                      1222955.7432061732       235337.58877903316       1245393.3236264328       220618.1731826016
88.81222484127682         500                      1126990.2467024475       248392.25395640358       1154038.876289697        214485.1102109994
82.82294100416162         500                      1238593.4002223015       232964.09170652926       1260311.818201706        221560.76804977225
81.35261904979622         500                      1268484.359117508        228526.44629386067       1288905.3130395017       223403.85900469922
80.32926963340311         500                      1290743.1888754964       225130.35422287043       1310229.6195785685       224713.32894870455
78.00052145218781         500                      1342829.4425135255       216371.15200901031       1360149.766423864        227778.86581927605
79.24998873071628         500                      1314075.4073506072       221263.02225509286       1332573.2629844868       226118.99842144974
76.00863608845242         500                      1390777.8257311285       207720.96186845005       1406204.4511894274       230500.74585830842
76.81939303213471         500                      1370666.7950644493       211365.34047663212       1386867.9714547638       229381.32435599098
75.02955360217719         500                      1415138.12119928         202927.7189566195        1429613.780428954        231874.33644872883
74.08062776140144         500                      1439868.5874887407       197912.32473024726       1453406.6318539185       233228.99987668233
72.78717775513783         500                      1474883.1866287738       190437.36368718743       1487127.030111541        235114.14802690374
71.03176932797697         500                      1525127.3107712269       178921.80811486393       1535586.6395222924       237747.03979036922
72.38594058050225         500                      1486287.7299270034       187828.3026591558        1498109.037223721        235708.18346011906
72.60274724574259         500                      1480141.525993526        189267.5576838106        1492193.4007902725       235386.61264279528
69.83026026316834         500                      1561341.2870095372       170013.55225023627       1570570.349417479        239601.24978960957
69.4956695049816          500                      1571865.907814499        166917.68809177727       1580703.623943275        240125.52797007505
68.7911623344446          500                      1594449.127209723        160897.79632659443       1602546.760666472        241240.87072705524
67.48059696062579         500                      1637685.472610414        148253.32346653938       1644382.180369901        243358.57268178737
67.95672049743129         500                      1621816.620827198        152861.24640431628       1629004.5157222962       242582.6168840786
67.03179230915731         500                      1653231.3617242575       143443.41054961085       1659442.661684563        244097.02836090478
66.49642313702816         500                      1671728.388526678        137349.87999653816       1677361.2594015242       244987.06883533217
64.83945872780433         500                      1732951.7227912843       115987.82578578591       1736828.9637312575       247807.16287555808
65.42697029719199         500                      1710525.5562289655       124117.98836661689       1715022.72683151         246795.66529390065
66.20069855338312         500                      1682485.6251955628       133818.19741022587       1687798.9183987014       245483.07829743496
64.420411513334           500                      1748447.3101146817       109726.20354646444       1751886.93584717         248536.59523411607
63.743315873048836        500                      1775584.1467494965       98800.58224841952        1778330.8514561525       249729.69613934337
68.37698009198472         500                      1607546.8313988447       157077.28921756707       1615202.8014860565       241903.9756602972
62.8728522871083          500                      1810944.8875381947       82951.97901262343        1812843.7374806565       251290.50457530437
63.12687841251502         500                      1800468.4505132884       87673.89833812416        1802601.828952674        250831.8040757546
62.77252638546925         500                      1815085.3536174          81043.91245056316        1816893.765926257        251472.3860921942
63.58825995251012         500                      1781483.3304894306       96098.1312931776         1784073.3470487571       250005.46371808826
62.261943014126146        500                      1836480.8406035602       70785.20055451989        1837844.5044457659       252404.64669747968
61.846613873426676        500                      1854639.3310334086       61565.84455484152        1855660.9069093955       253171.1917455121
58.373633014520216        500                      2021412.2463935614       -45893.45065036416       2021933.1538610423       259892.01923785458
58.55896020282397         500                      2011095.7162843943       -38119.38755893707       2011456.9515068696       259518.34580903358
58.93410653562878         500                      1991985.330119133        -23513.878022015095      1992124.1070449064       258767.4544253283
59.19898400372054         500                      1978485.7790437937       -13929.863133490086      1978534.8162126048       258241.59814128402
59.63912521169714         500                      1956716.8511314392       1487.8144618868828       1956717.4167706505       257375.64712520642
60.19712967934562         500                      1929359.2331985235       19053.96386396885        1929453.3174625717       256291.395079381
60.406279861908686        500                      1919933.4473636001       25179.013794898987       1920098.545658832        255888.8643670107
60.86877317020867         500                      1898044.257940948        37937.64583399892        1898423.3642878581       255005.94798140696
61.44193680173073         500                      1872397.7393347025       52311.80999459699        1873128.3511096123       253925.33752301263
61.645223333613515        500                      1863784.0998290777       57029.073985219          1864656.398925898        253545.56166487234
58.10063942129857         500                      2036170.914575994        -57815.45171439648       2036991.561058165        260445.82018765458
57.856792274372125        500                      2049347.797225058        -69210.3972132206        2050516.1479670452       260943.94122844827
57.60172820167964         500                      2064064.9857658315       -81597.51005512476       2065677.230138266        261468.5389441207
59.47639513873496         500                      1964582.2982091904       -4036.2291387468576      1964586.4444158636       257694.67264590907
57.17360092233699         500                      2088531.82599538         -104232.42319054529      2091131.1738482045       262357.458931734
57.011100678159316        500                      2099021.2953894082       -113749.7761106193       2102101.189301658        262697.7438140378
56.318951940239785        500                      2143988.888210714        -158317.87626183033      2149826.249424606        264165.61950633983
56.44676098695301         500                      2134019.432833433        -149940.1140729189       2139280.48126442         263892.2606510761
56.57563378284524         500                      2125794.2794378507       -140629.26764824986      2130440.778198252        263617.6274748601
55.75867807293297         500                      2183712.7850866914       -202972.5700918436       2193125.48477299         265377.638923903
56.00247921686039         500                      2165188.657718241        -182355.08135390282      2172854.1826839894       264847.4535942038
55.061173296130136        500                      2242857.406313896        -271065.03826761246      2259178.080636434        266920.60033919546
55.10091659028219         500                      2238267.985857904        -267022.94774109125      2254139.4879502775       266831.55920851906
55.164895752989956        500                      2232919.8589791656       -260109.24611768126      2248018.6646332466       266688.5052855561
55.35172123009211         500                      2216625.0000576973       -240442.62211465836      2229627.557555333        266272.86111496756
55.60329744463778         500                      2196112.9566162825       -216544.6441438794       2206763.1728677433       265717.8948113599
55.66814978867941         500                      2191597.435687959        -210446.8569382429       2201678.2688915343       265575.61815940146
54.07843730545594         500                      2357762.7302806377       -416083.6878809929       2394195.215019246        269176.74651138455
54.24454394482291         500                      2334586.6402828097       -386912.8626999855       2366431.1408341625       268787.0202128099
54.02444831231706         500                      2367422.7180581093       -426736.84928417206      2405575.744913186        269304.3189134433
53.75629008661475         500                      2415075.8765511513       -486070.1909135878       2463504.7635419914       269945.15942494274
53.849346308737154        500                      2395497.0977478027       -464236.3079280853       2440065.920199052        269721.3173147623
54.81936093012667         500                      2265675.4448857307       -300323.0991847515       2285493.2039851025       267465.70983717183
54.66500196042156         500                      2283093.9282372          -320499.6214270592       2305479.970090492        267816.7890905211
54.34850638884352         500                      2320452.819419265        -368230.8702406883       2349488.29768293         268545.07086342387
54.593010642654086        500                      2290173.573674679        -330780.6793704033       2313938.3862589328       267981.4068675042
54.3778970559568          500                      2317363.5899517536       -363241.3163404465       2345659.4513975848       268476.91660431365
53.53117429003011         500                      2463857.408061385        -547549.48949337         2523965.8814459867       270494.00704522675
53.61643233184745         500                      2444122.004855156        -524618.5349940658       2499791.3876714804       270284.8261844207
53.45585249878914         500                      2481386.4338288307       -570958.2081623077       2546226.9948804006       270680.27822521934
53.675108035563035        500                      2429625.849570513        -507444.8502086401       2482051.982716016        270141.8108363729
53.32919894876471         500                      2518826.1702713966       -615141.6552667618       2592852.585876876        270996.9083394684
53.29554754571345         500                      2529712.893396616        -627664.7612867355       2606417.153024092        271081.86557549675
53.270248316179305        500                      2539069.850558758        -634561.5541734099       2617163.3636537567       271145.92894193775
53.14423441831132         500                      2579733.6867609024       -690051.8441832066       2670430.197977405        271468.4491350168
53.007098088014274        500                      2643633.8419983387       -759696.4727087021       2750625.132802531        271826.6542463714
52.992073506777906        500                      2648488.459032893        -768890.9020867348       2757840.520578045        271866.41020708374
52.85806451535165         500                      2724043.4139749557       -853166.9256336987       2854523.834935625        272226.5735297761
52.95931717471709         500                      2669296.729619622        -791840.9912648201       2784269.59653789         271953.5482141259
52.775897701224444        500                      2790481.5474390984       -911469.725250423        2935568.8250569403       272452.9983068461
52.716171921556594        500                      2828512.6527491957       -968618.1149401367       2989766.6931304988       272620.7498559485
52.56753992373631         500                      2997513.761285007        -1131442.1076015234      3203942.8821292627       273053.68768417754
52.678148732219114        500                      2874735.1044347584       -1010801.1604866162      3047264.4956929176       272729.47372487636
52.50051004476023         500                      3102206.529209614        -1237828.1841464043      3340045.503183743        273258.3520438928
52.44985971017961         500                      3209196.4006283283       -1320398.568936348       3470215.2553775357       273418.3491495205
52.36309141768629         500                      3452181.8786067963       -1550450.5897812843      3784370.060437309        273706.22443837527
52.37000345005767         500                      3413918.7391695976       -1490276.6417210102      3725018.8759941324       273682.26711904927
52.285808763003224        500                      3739756.9779291153       -1792868.9646474123      4147307.7265095          273984.130501951
52.25442671656076         500                      4058198.011559963        -1873044.7951979637      4469593.707021637        274107.0009463207
52.197662229582036        500                      4447679.362565517        -2379657.5861554146      5044266.243918755        274349.36827045056
51.90438474518643         500                      -794028.9014501572       -2116729.067996025       2260757.360628837        274695.0665363116
51.867634208627535        500                      -1100143.8984003067      -1829856.1481127553      2135108.924615668        274645.63722259563
51.817061732194425        500                      -761065.7436957359       -1561685.8979604747      1737263.339311504        274598.5742322147
51.75575959280757         500                      -544520.6747527122       -1344165.800857067       1450270.4800922032       274559.5419743868
51.71752556400791         500                      -361193.31913244724      -1289164.5263694525      1338807.6000065464       274542.32289745694
51.68572686782986         500                      -333096.55388474464      -1237795.7396278381      1281831.3489889065       274530.56311650504
51.60402407960636         500                      -146482.753221035        -1067588.5764398575      1077591.093845943        274512.1292032547
51.530633874288114        500                      -47476.38158726692       -969986.9461620301       971148.1259485397        274505.08784400363
51.50758347770686         500                      -16810.155565738678      -934673.5382784605       934824.691847686         274504.34692891553
51.3887495723545          500                      107668.53400564194       -798299.2961568832       805527.3300512524        274509.78273796535
51.490434098436765        500                      2786.08185839653         -909998.5850007534       910002.8499710839        274504.28887533554
51.30137961891824         500                      164031.91844892502       -714168.8027912378       732764.320331104         274521.56011561037
51.29137444798475         500                      174052.8382344246        -708643.6560274363       729705.5719434998        274523.2598164912
51.179266602592364        500                      236353.84153938293       -618174.3579106331       661817.7054058369        274546.17768667225
51.24270218495817         500                      200007.91211485863       -671859.9876828194       700998.5791410017        274532.33725568966
51.17045213156498         500                      237067.70149755478       -612080.2974882126       656386.6129550423        274548.2530776445
51.03287546819739         500                      298070.41069817543       -522204.06507849693      601284.5044721226        274585.2628590669
51.04810789165861         500                      291194.3853812218        -525726.6293561459       600984.7409807689        274580.7718468552
51.0305298131739          500                      301629.30273783207       -508934.33109402657      591603.2366681533        274585.9557968562
50.802900696021545        500                      365488.21302580833       -381893.12817287445      528605.7086396837        274661.88348243124
50.66281687567597         500                      399819.7000398636        -306887.8790626526       504019.8040310914        274715.38381728344
50.0890148657215          500                      460266.7488761544        -54853.665066838264      463523.89872830705       274960.8512658273
50.13721221220512         500                      453925.01310169697       -74177.88424181938       459945.9490309361        274938.818716995
50.22785602517264         500                      438681.0290647745        -102318.8025122881       450455.5278924637        274898.20662295836
50.449325620391065        500                      419361.03442677855       -202475.833817482        465682.4459603157        274803.1224374735
