% Model:              NoGradingFinal.mph
% Version:            COMSOL 4.3.2.164
% Date:               Mar 19 2014, 20:08
% Dimension:          2
% Nodes:              1858
% Expressions:        4
% Description:        Electric field, r component, Electric field, z component, Electric field norm, Electric potential
% Length unit:        mm
% r                       z                        es.Er (V/m)              es.Ez (V/m)              es.normE (V/m)           V (V)
49.666906633013625        2120.62                  1.5497207641601562E-6    0                        1.5497207641601562E-6    275000.00000000035
50                        2120.62                  2.1457672119140625E-6    2.384185791015625E-7     2.1589720578521293E-6    274999.99999999994
0                         2120.62                  -2.868473529815674E-7    0                        2.868473529815674E-7     275000.00000000006
11.449998265287562        2120.62                  7.450580596923828E-9     3.725290298461914E-9     8.33000234328132E-9      275000.0000000015
49.62419632089936         2120.62                  1.430511474609375E-6     -1.862645149230957E-7    1.442587102572536E-6     275000.00000000047
49.50229208401422         2120.62                  5.513429641723633E-7     1.9650906324386597E-7    5.853160480281995E-7     275000.0000000006
49.2285696711435          2120.62                  9.5367431640625E-7       2.2649765014648438E-6    2.457562461863554E-6     275000.0000000007
49.13094238797986         2120.62                  6.034970283508301E-7     1.7285346984863281E-6    1.8308579592910816E-6    275000.0000000009
48.78020162237668         2120.62                  1.5497207641601562E-6    4.76837158203125E-7      1.6214216361922555E-6    275000.0000000011
48.463871141056046        2120.62                  1.1324882507324219E-6    4.0978193283081055E-7    1.2043466571222489E-6    275000.0000000014
48.049787965769134        2120.62                  2.980232238769531E-7     5.066394805908203E-7     5.877936757599122E-7     275000.00000000163
46.933369472140384        2120.62                  -2.3096799850463867E-7   3.5762786865234375E-7    4.257275053012864E-7     275000.0000000021
47.12096271605108         2120.62                  2.980232238769531E-7     4.76837158203125E-7      5.623090941939713E-7     275000.00000000204
46.83786067427098         2120.62                  2.384185791015625E-7     1.4901161193847656E-8    2.388837865275353E-7     275000.00000000215
45.341745258445016        2120.62                  -5.9604644775390625E-8   1.4901161193847656E-7    1.6049041769309353E-7    275000.0000000021
44.80246227586759         2120.62                  -1.1920928955078125E-7   1.4901161193847656E-7    1.9082797281243946E-7    275000.00000000215
42.29021331014973         2120.62                  -5.9604644775390625E-8   6.332993507385254E-8     8.69677776838001E-8      275000.00000000215
41.64295446452273         2120.62                  4.470348358154297E-8     -3.3527612686157227E-8   5.587935447692871E-8     275000.0000000021
41.46103600275706         2120.62                  3.725290298461914E-8     -1.2665987014770508E-7   1.320246245463889E-7     275000.00000000204
37.74773923412256         2120.62                  -2.9802322387695312E-8   4.470348358154297E-8     5.3726900748371916E-8    275000.0000000022
35.64090359656513         2120.62                  3.725290298461914E-9     1.955777406692505E-8     1.9909402659565163E-8    275000.00000000215
31.710232518677476        2120.62                  -8.35862010717392E-8     -3.725290298461914E-9    8.366917471454483E-8     275000.0000000019
29.73110180356414         2120.62                  -4.470348358154297E-8    -3.725290298461914E-9    4.485843546238652E-8     275000.0000000018
25.91048247157573         2120.62                  7.450580596923828E-9     -2.8870999813079834E-8   2.9816870751943665E-8    275000.00000000163
20.307656984343744        2120.62                  3.725290298461914E-8     0                        3.725290298461914E-8     275000.0000000018
23.9512301394664          2120.62                  5.587935447692871E-8     9.313225746154785E-9     5.665014060491901E-8     275000.00000000163
15.341064605398124        2120.62                  -4.0978193283081055E-8   4.0978193283081055E-8    5.795191670247929E-8     275000.0000000017
150                       2120.62                  -2240230.8984818533      3537803.0529384986       4187443.721400178        11535.045437416733
150.144746516269          2120.62                  -2197799.2725954056      3405942.1429880112       4053487.8221110594       11856.236170708582
476.91748468347436        2120.62                  111280.77043000085       12782.872007397493       112012.55145853994       2524.1787876222443
500                       2120.62                  107428.39128905098       -9.685080130843383E-11   107428.39128905098       1.4908684188443121E-12
150.2783995810405         2120.62                  -2162564.0392188877      3294106.332247005        3940535.4651205116       12148.128889776099
150.4118756086795         2120.62                  -2130671.732399404       3194354.194268276        3839747.4851460224       12434.650918032597
150.5651915881591         2120.62                  -2086192.0224660262      3083929.5356981307       3723280.6146934694       12757.94776359673
150.682152330078          2120.62                  -2051833.1455514198      3005402.5496977093       3639019.6128782993       13000.538038155148
150.9241930293509         2120.62                  -1992449.6410827823      2863523.6149872765       3488498.6836518524       13489.978555022819
151.2380672265543         2120.62                  -1911681.9889091812      2706503.7352320896       3313561.6027991716       14101.125713663885
151.51120875434404        2120.62                  -1836850.2905404828      2586088.1126844618       3172045.19457503         14611.824923207234
151.9607342696059         2120.62                  -1731683.4931221558      2429330.9804534763       2983349.9179517645       15413.111614211724
152.21482810176192        2120.62                  -1678066.312362738       2341547.4626808576       2880755.2948270077       15846.309811595962
152.4788245490969         2120.62                  -1619177.6436912837      2264666.364206834        2783962.9995744303       16279.577156821422
153.11528585787897        2120.62                  -1499180.63425209        2101455.4040864287       2581406.0876740324       17270.50137894428
153.69126130292557        2120.62                  -1398452.1058052815      1987627.076920461        2430294.156915702        18105.094954687705
154.22180968488058        2120.62                  -1313861.9054727443      1891522.226741998        2303060.885194197        18826.434991267248
154.93945988898253        2120.62                  -1226564.5636625513      1780258.5359409535       2161892.9399078325       19738.00377830804
155.37821868394226        2120.62                  -1163617.3018738911      1727706.8891788824       2083020.9600809219       20262.08392602396
156.80931703324427        2120.62                  -1026423.697111316       1577566.8456009123       1882089.9974047139       21822.660896515677
157.1175866217754         2120.62                  -968763.5326840375       1542358.1191514416       1821365.2434289034       22135.441729432678
155.85663446291198        2120.62                  -1116967.9231661586      1677192.2074224232       2015090.82723847         20808.69622163479
158.35525208027678        2120.62                  -893565.5880609606       1437774.598113258        1692824.6380374047       23287.9119419863
160.27713943848934        2120.62                  -787072.1365585703       1298164.488309509        1518128.3169925925       24863.421665941452
160.98368318404098        2120.62                  -701037.500337725        1258001.6670283894       1440146.4408614745       25399.923655798942
164.77832205359533        2120.62                  -534276.1928323589       1101285.0830233006       1224042.43566842         27743.708333896942
172.0892917892823         2120.62                  -331913.1622883398       898845.4872521916        958169.899993668         30882.87917620928
172.63206107257082        2120.62                  -337530.433074804        891692.1338684903        953436.7597563074        31059.053495924996
172.81423842727816        2120.62                  -335756.3753311727       886617.4623991488        948062.6921288662        31120.382300782367
173.31236391524692        2120.62                  -288846.2763340026       886259.4588550219        932141.6200138342        31265.72647583542
182.01330699644785        2120.62                  -155373.9094210365       720823.4398796232        737378.7922151472        33268.71219307774
435.0877378066805         2120.62                  121596.91292283357       39307.35079561372        127792.32003110595       7382.346803037495
197.99118615449098        2120.62                  -17972.829891327303      546285.9618434301        546581.5352914002        34652.28986520702
200.47320534043737        2120.62                  -37754.506346399896      532858.4849609195        534194.3164657471        34748.90545701574
191.6885477333139         2120.62                  -69143.6540859344        613694.7866204265        617577.635626037         34360.614215778856
203.6260134610628         2120.62                  17195.982140743756       515341.7775862287        515628.5964989905        34694.16176276558
376.70222732648585        2120.62                  130135.08702483632       83582.3152065893         154664.61874085933       14734.726145534121
370.1363155702211         2120.62                  133584.679633541         90181.1738109705         161175.40365303963       15600.50650366495
305.5868634098249         2120.62                  130502.33802159864       168067.6052346435        212785.29121725392       24351.569648171673
303.78300819841166        2120.62                  132238.65606588195       171394.77438580798       216479.1695403339        24588.54300388998
250.90691905840657        2120.62                  99314.86165826092        284184.3406845977        301038.5045746457        31423.683512170435
239.85123042004847        2120.62                  120881.0049161166        316797.01659751375       339076.0491019907        32558.913934793978
50.103983705327074        2120.62                  1916823.667151451        -101693.36823797226      1919519.3440274368       274800.64499884215
149.91073080171645        2120.62                  -1250304.488660574       3588453.9803569242       3800034.642408439        11424.518911351151
61.51281335669717         2120.62                  4025849.8651185036       -237373.48812532425      4032841.8403576724       231155.51582560388
61.5664253189936          2120.62                  4025643.376903534        -238702.383456707        4032714.151272713        230939.6876495432
61.481502228704706        2120.62                  4026308.4544935226       -236495.6444425583       4033248.0658355644       231281.57870920745
61.584531813701474        2120.62                  4025870.894080162        -239104.62628102303      4032965.097556733        230866.79459343402
61.63494175360298         2120.62                  4026060.51547575         -239910.85153079033      4033202.2625892553       230663.84590421067
61.12844118061241         2120.62                  4042986.2989554405       -227959.7872955799       4049407.842903115        232705.42254235895
61.1765786341918          2120.62                  4039347.195661545        -228807.00433444977      4045822.3406782574       232510.89126234446
61.23140903276332         2120.62                  4035986.28276062         -229833.08829903603      4042525.0182415643       232289.5043857346
61.269610598147985        2120.62                  4033750.5271544456       -230786.66382861137      4040347.237493321        232135.36608301444
61.30745720206277         2120.62                  4031873.115908861        -231681.87636470795      4038524.1505560544       231982.73813833686
61.33960080463054         2120.62                  4030373.986550331        -232598.11476421356      4037080.1768671223       231853.16266339962
61.38849372669392         2120.62                  4028485.7404569387       -233903.15410232544      4035270.5047572595       231656.1514656524
61.43809135371322         2120.62                  4027131.602218151        -235402.96344709396      4034005.887053687        231456.38199664335
61.021137912884356        2120.62                  4051514.537384689        -227110.85199832916      4057874.983995302        233139.683883166
61.07682604940383         2120.62                  4046685.502099991        -227469.87822639942      4053073.660619381        232914.19727808182
61.699583464175475        2120.62                  4027428.898546219        -240527.99777078629      4034604.968340374        230403.54959108745
61.71618943815277         2120.62                  4028000.619512558        -240497.70373535156      4035173.866922654        230336.66427508026
61.73850585267003         2120.62                  4028529.6171776056       -240644.85860705376      4035710.6963273715       230246.77193061274
60.89214115447013         2120.62                  4063058.387564659        -227519.50606560707      4069423.6184501443       233663.03419674258
60.9327941273807          2120.62                  4059173.042490959        -227267.32644718885      4065530.2515853653       233497.94097264763
60.9755346856886          2120.62                  4055281.9045273066       -227138.41605854034      4061637.992883684        233324.531923151
60.46108620878454         2120.62                  4106257.419883132        -240226.3114347458       4113278.3371722875       235423.56553064252
60.53894866511221         2120.62                  4098278.1654314995       -236730.28131961823      4105109.6388947084       235104.15664772879
60.58431114251912         2120.62                  4093399.8818929754       -234967.93431568146      4100138.1102638487       234918.3585556792
60.64248118998779         2120.62                  4087581.050169468        -232933.8266916275       4094212.6238535456       234680.41331956192
60.71361854026368         2120.62                  4080360.9550533295       -230978.57727861404      4086893.273219325        234389.894787024
60.767397219871604        2120.62                  4074985.4668302536       -229597.34653568268      4081448.4556850656       234170.60441084835
60.83678953626859         2120.62                  4068035.8963956833       -228252.00972294807      4074434.320774651        233888.06880992596
57.77046117347998         2120.62                  4331872.472600937        -606502.1702041626       4374124.369669901        246826.50773236103
57.79569530612179         2120.62                  4332480.550298214        -599896.6728525162       4373815.695341064        246717.18958686487
57.81428677220296         2120.62                  4332390.94004482         -595141.6879094839       4373077.278767229        246636.64488215774
57.920125509626814        2120.62                  4332604.815116465        -569271.2784473896       4369843.735471041        246178.09877690315
66.22294923993861         2120.62                  3797488.8213032484       75685.31048583984        3798242.964075162        212468.0700371245
66.23855768915594         2120.62                  3796012.6343841553       75630.7005302906         3796765.9821572937       212408.80614431633
66.2094782319735          2120.62                  3799003.3963308334       75833.64832675457        3799760.1960586607       212519.2359973901
66.14397172143565         2120.62                  3805525.976626754        75896.78086298704        3806282.737806845        212768.30919209577
66.09632041520652         2120.62                  3810666.1459567547       75550.14203095436        3811414.9996952317       212949.77155093552
65.99293644557734         2120.62                  3821814.8625518084       74044.7292702198         3822532.0751505275       213344.3091762838
66.04706175573095         2120.62                  3815972.785324812        74947.4002995491         3816708.7144752434       213137.61008197
65.92579399269361         2120.62                  3829159.3220772743       72182.78896903992        3829839.613988377        213601.16423274495
65.90292591222753         2120.62                  3831770.741554737        71594.01135027409        3832439.5257193767       213688.75759176267
61.78242712868279         2120.62                  4029692.7797265053       -240319.85791110992      4036852.4289458916       230069.80822557933
61.84576052477238         2120.62                  4032113.065277815        -239344.3531563282       4039210.503374623        229814.51549414426
61.85125617659595         2120.62                  4032335.1120409966       -239204.2497420311       4039423.861009553        229792.35574400966
61.853151386852595        2120.62                  4032434.699679911        -239173.74994897842      4039521.4679275155       229784.71354124715
61.927098292257035        2120.62                  4035255.9845908284       -236967.61782300472      4042207.8760341858       229486.4231613162
61.9423285194311          2120.62                  4036092.2597875595       -236372.24496245384      4043007.8614449464       229424.95883509226
57.981687364199594        2120.62                  4330364.11365366         -554321.3879104853       4365698.74795713         245911.44712206567
60.079245634769265        2120.62                  4146086.5220780373       -262733.52118587494      4154402.7671509995       236999.1256690293
60.20413956794169         2120.62                  4133018.5325319543       -254255.0783519745       4140831.7805871274       236482.10523582442
60.23094312692081         2120.62                  4130349.8318641856       -252600.80137062073      4138066.8069079774       236371.36139516372
60.31466735729056         2120.62                  4121518.734410763        -247637.5199932456       4128951.5641876087       236025.91858042465
60.40617642483891         2120.62                  4112067.943043709        -242878.88712215424      4119234.5068006767       235649.19771941286
60.42859040055116         2120.62                  4109532.481149256        -241730.3717839718       4116635.8578654462       235557.05489719743
60.741328155531306        2120.62                  4077414.7628569603       -230191.37387180328      4083907.346765946        234276.86713390597
57.58225451864595         2120.62                  4323611.692066669        -654728.6069879532       4372903.796401653        247641.2258234738
57.68398111502225         2120.62                  4330155.738776684        -628247.2349491119       4375493.49334242         247201.04689088787
57.09915397663966         2120.62                  4252832.969399452        -761442.5824519992       4320460.979106527        249715.95289413314
57.155247567468386        2120.62                  4264932.860120416        -751880.6121044159       4330701.647099858        249477.0503122571
57.06257655507657         2120.62                  4245329.814987183        -766534.00278759         4313977.238633587        249871.37695994985
57.03530664866137         2120.62                  4239155.23633194         -769801.8277549744       4308483.720723035        249987.0607843381
58.070170717529734        2120.62                  4328344.852675676        -534485.9860664606       4361220.521022236        245528.37131964037
66.3053679969992          2120.62                  3789820.3893380165       74747.90282201767        3790557.456683442        212155.4002245351
66.33848629955341         2120.62                  3786914.1429719925       74130.58746981621        3787639.643661989        212029.9351374562
65.88951078727338         2120.62                  3833071.1608365774       71193.50745892525        3833732.259762198        213740.1703570047
65.7992342241102          2120.62                  3842870.778591424        67725.70337599516        3843467.521893431        214086.6506133895
66.07169169070633         2120.62                  3813395.0871013403       75333.09039390087        3814139.1118884133       213043.65466466942
71.11928143516171         2120.62                  3558950.578103915        298664.4994029552        3571460.443654641        194286.9571157844
71.14772835222253         2120.62                  3554793.6873230934       298372.9204480648        3567293.730419297        194185.7743527634
65.68398975821236         2120.62                  3854739.4872562885       62291.61291885376        3855242.762739191        214530.20669276678
65.77176002108517         2120.62                  3845690.673247814        66520.35950279236        3846265.944072719        214192.26798522292
62.01396158615373         2120.62                  4038819.9449014664       -233003.9095568657       4045535.486088667        229135.7449615515
62.022649706878205        2120.62                  4039354.519704342        -232472.66124284267      4046038.615001249        229100.6525456228
62.03489935933299         2120.62                  4039786.1684589386       -231851.67500448227      4046433.922118899        229051.17140982556
62.46610150835914         2120.62                  4048894.0035238266       -195222.98273086548      4053597.743333388        227306.60415526474
62.49009389689628         2120.62                  4048845.0037453175       -192714.5870475769       4053428.7678969195       227209.46260733885
58.17900501332481         2120.62                  4322341.518513934        -510403.26318216324      4352372.651064743        245057.61613466762
58.249804669924956        2120.62                  4319154.686927367        -495990.30052399635      4347539.94666185         244751.70865273933
60.066265783810955        2120.62                  4147386.3020097017       -263623.1813259125       4155756.2873477195       237052.94968962102
59.94034111050051         2120.62                  4160696.2192459106       -272964.10206127167      4169640.563629116        237576.05557341466
60.05084298063004         2120.62                  4149263.9606966972       -264726.78362703323      4157700.2880806546       237116.93121874638
59.848241744915406        2120.62                  4170302.1885294914       -280341.54516887665      4179714.311481293        237959.6932816573
57.44768343654627         2120.62                  4312545.994874284        -688962.2295241952       4367232.75216895         248222.36806005787
57.54049485226557         2120.62                  4320824.638708472        -664931.557528019        4371688.407774145        247821.73511904787
57.41992150878798         2120.62                  4309162.88839674         -695187.5429110527       4364879.210076086        248342.00716726168
57.33984550887374         2120.62                  4297530.889612436        -714332.8466775417       4356494.366232499        248686.5944455174
57.20005459364723         2120.62                  4274041.220440865        -744119.7884058952       4338334.082747071        249285.76200469938
57.297110001623075        2120.62                  4290138.947315931        -723375.3574287891       4350696.966580444        248870.11217998355
57.570030106666984        2120.62                  4323747.789601505        -657855.2633662224       4373507.57351837         247694.07529611702
57.00488329315668         2120.62                  4231870.713698626        -773517.6671323776       4301983.184396009        250115.92889920605
56.81277732258954         2120.62                  4189542.7087011337       -785694.9011678696       4262579.569433516        250924.87124299543
56.82763166147162         2120.62                  4192553.645628929        -784825.8879246712       4265378.968606796        250862.60291296293
56.847814690208864        2120.62                  4197731.716667011        -784823.5967180133       4270468.316599197        250777.93639293208
56.9166071004461          2120.62                  4212202.782027245        -781214.6707851291       4284034.154715386        250488.66763802763
56.975474680123654        2120.62                  4225890.057861567        -776336.3661413193       4296608.538664739        250240.29440603452
66.42522632036962         2120.62                  3780028.450866699        72241.1784542203         3780718.6985051073       211701.7608906477
66.45915145894628         2120.62                  3777624.01751709         71340.64689540863        3778297.593575897        211573.56177690942
66.38994577898683         2120.62                  3782811.5496482104       73140.60685920715        3783518.5698663653       211835.16996944783
66.52112055559353         2120.62                  3773823.923985243        69733.41707897186        3774468.142493838        211339.58593531483
66.55131615002479         2120.62                  3772119.5554065704       68803.38837099075        3772746.9894669577       211225.6589557458
66.73421848022286         2120.62                  3764610.535083294        64422.25551867485        3765161.7107192404       210536.48256554367
66.75198486424675         2120.62                  3764218.353769429        64061.578084886074       3764763.4322280274       210469.60238086432
66.70966553994438         2120.62                  3765440.1989198923       64977.885424137115       3766000.7988894624       210628.9255881383
66.8012561885801          2120.62                  3762855.2798558474       63306.83935403824        3763387.7840382094       210284.16714442044
66.85359836055811         2120.62                  3761956.0793349743       62760.57519799471        3762479.559099897        210087.2329774591
66.61487786657764         2120.62                  3768864.139766693        67184.46322798729        3769462.913482313        210986.00080336977
66.66645018812031         2120.62                  3766889.3997569084       65863.4275894165         3767465.161231725        210791.68172496924
66.89353817259418         2120.62                  3761334.348242879        62530.99334166944        3761854.09132252         209936.9952468002
66.97452094661877         2120.62                  3760173.6574715376       62410.86648744345        3760691.5654701856       209632.44144784374
66.87757090082582         2120.62                  3761613.5617337227       62571.927542448044       3762133.9468359496       209997.0557236891
67.08733395228913         2120.62                  3759053.064659834        63146.57685279846        3759583.4121743753       209208.3039710345
67.14598567662392         2120.62                  3758715.797999859        64026.81267619133        3759261.0820313063       208987.83846146308
67.0026531997053          2120.62                  3759997.491902828        62541.735776901245       3760517.59839381         209526.6611573327
67.19134284426778         2120.62                  3758167.716896057        64864.35324680805        3758727.4405896803       208817.36618859076
67.25631445722404         2120.62                  3757757.8426213264       66371.62312912941        3758343.9432998784       208573.2021740122
67.28151524409478         2120.62                  3757452.8253051043       67007.50902146101        3758050.2578675784       208478.50756284664
67.35426995095122         2120.62                  3756803.041701317        69148.78198798001        3757439.3738537803       208205.15595059664
67.44975692243688         2120.62                  3755733.4234040976       72252.05446052551        3756428.344458128        207846.47867060284
67.49707507085479         2120.62                  3755160.222901821        73966.51218280196        3755888.6224951535       207668.77561614945
67.52773551591307         2120.62                  3754804.283606708        75101.25167119503        3755555.272685234        207553.64670349204
70.557641415034           2120.62                  3633799.7028340995       273493.7526578903        3644077.2649684697       196307.6149306778
70.64048773830956         2120.62                  3624027.698088646        280054.45382237434       3634832.4931995748       196006.96981427222
71.04437826264123         2120.62                  3569320.3222284317       298424.82125782967       3581773.9929559547       194553.9159491033
71.0477751540955          2120.62                  3568814.508193314        298676.61091041565       3581290.9281146117       194541.79152137658
71.0321991348382          2120.62                  3571128.2137055993       298428.93526411057       3583575.944238801        194597.3979037166
70.6636731839395          2120.62                  3621540.2194168568       281720.3164972663        3632481.231552507        195922.97524216148
70.75004086884245         2120.62                  3610462.828474283        287509.19314980507       3621892.2363786823       195610.66755430624
71.51274839963364         2120.62                  3514771.863778889        284336.1082714796        3526254.142412129        192896.17685597314
71.53639178653829         2120.62                  3512866.756193638        282886.4758733511        3524238.5851418255       192813.0998190581
71.55398262197343         2120.62                  3511604.8783323467       281921.35334575176       3522903.4149405565       192751.315774214
71.19159798781808         2120.62                  3548942.402352333        297687.23792409897       3561405.602685157        194029.9527695859
71.26254392323602         2120.62                  3540128.299590826        295636.01497364044       3552451.1299824137       193778.49260227676
65.66810001155383         2120.62                  3856350.001094818        61449.177683353424       3856839.5523254485       214591.46966737363