% Model:              NoGradingFinal.mph
% Version:            COMSOL 4.3.2.164
% Date:               Mar 19 2014, 20:04
% Dimension:          2
% Nodes:              264
% Expressions:        4
% Description:        Electric field, r component, Electric field, z component, Electric field norm, Electric potential
% Length unit:        mm
% r                       z                        es.Er (V/m)              es.Ez (V/m)              es.normE (V/m)           V (V)
48.25490251389814         3025                     0                        -2.244302992555145E-7    2.244302992555145E-7     274999.9999999999
50                        3025                     -1.7881393432617188E-7   1.4901161193848503E-8    1.7943374184954612E-7    275000
0                         3025                     -7.078051567077637E-8    0                        7.078051567077637E-8     275000
12.757076489944751        3025                     1.4901161193847656E-8    -2.2351741790771484E-8   2.6863450374185958E-8    275000.00000000023
52.02009776740005         3025                     0                        7.0011342398352E-8       7.0011342398352E-8       275000
52.099999999999994        3025                     5096809.495485306        -1.498950967896448E-8    5096809.495485306        275000.00000000006
52.00000000000002         3025                     1.2413199898973423E-6    0                        1.2413199898973423E-6    275000
56.82009776740005         3025                     0.18684398624910128      -5.034506320953369E-4    0.18684466452107565      252058.9788631356
56.9                      3025                     0.18683481216430664      -5.11220578465087E-4     0.18683551156820158      252058.97884820958
56.800000000000004        3025                     4675702.531440854        -5.064350308560446E-4    4675702.531440854        252058.97886689124
61.620097767400054        3025                     0.17221450805664062      -0.02257174253463745     0.17368742138174745      230990.4552096129
61.699999999999996        3025                     0.17230653762817383      -0.022578798234465243    0.17377958752144043      230990.45519585142
61.6                      3025                     4308399.4208064675       -0.022574624147500603    4308399.4208064675       230990.45521307414
66.42009776740004         3025                     0.1597309112548828       -0.06755971908569336     0.17343090743363204      211501.06894356126
66.5                      3025                     3993086.1471883357       -0.0675685703755439      3993086.147188336        211501.0689307902
66.4                      3025                     3997506.662758976        -0.06756480675368813     3997506.6627589767       211501.06894677275
71.22009776740006         3025                     0.14904356002807617      -0.09015865351285572     0.17419117540533996      193363.71227006865
71.30000000000001         3025                     3727699.438062966        -0.09016668796538913     3727699.438062967        193363.7122581504
71.2                      3025                     0.1490917205810547       -0.0901634693145752      0.17423487694678017      193363.71227306518
76.02533384646897         3025                     0.13986730575561523      -0.13175344467163086     0.1921505487948844       176396.51464643594
76.09999999999998         3025                     3495262.3300774097       -0.13175361264218213     3495262.3300774125       176396.51463599462
76                        3025                     0.13989043980836868      -0.13175106048583984     0.19216575420433854      176396.5146499797
80.8                      3025                     3291908.2600320876       -0.21147618017512207     3291908.2600320945       160456.1045201506
80.82009776740004         3025                     0.1316066441674978       -0.21147435903549194     0.24908174023501306      160456.10451750585
80.90000000000002         3025                     0.1318216323852539       -0.21147897896638745     0.24919932044325235      160456.10450698365
85.6                      3025                     3111000.317628339        -0.188868697732687       3111000.3176283445       145416.31881667025
85.67990223259997         3025                     0.12429094314575195      -0.18887990713119507     0.22610585544374878      145416.3188067244
85.69999999999997         3025                     0.12430191576532694      -0.1888751983642578      0.22610795390712857      145416.31880422594
90.39999999999999         3025                     0.11815857887268066      -0.2298247963188858      0.2584199813563743       131181.58640157746
90.47990223259998         3025                     0.11789131164550781      -0.2298334687948227      0.2583056033843613       131181.58639214828
90.5                      3025                     2949705.4583518803       -0.2298306894801532      2949705.458351889        131181.58638977908
95.22009776740003         3025                     0.11211490631103516      -0.27288758754730225     0.29502099527748654      117664.43348951552
95.29999999999998         3025                     2807603.7875185907       -0.2728925049304177      2807603.7875186037       117664.43348054553
95.19999999999997         3025                     0.1121058464050293       -0.27289050817489624     0.2950202539659627       117664.43349176904
100.02009776740005        3025                     0.10701370239257812      -0.298337459564209       0.31694979457162187      104783.42152046374
100.1                     3025                     0.10728096961975098      -0.2983404988364531      0.31704299343864645      104783.4215119038
100                       3025                     2675670.892541215        -0.29833868621076626     2675670.8925412316       104783.42152261396
104.82009776740003        3025                     0.10238100877885908      -0.3110155910253525      0.32743330438339063      92475.4019330974
104.89999999999996        3025                     0.10265994071960449      -0.3110182341189081      0.3275231371720121       92475.40192490697
104.80000000000001        3025                     2559466.904025942        -0.311016652372261       2559466.9040259607       92475.4019351544
109.62009776740004        3025                     0.09816670417785645      -0.3387070596218109      0.35264596133628945      80684.45858895511
109.69999999999999        3025                     2460183.24112083         -0.3387104361772948      2460183.2411208535       80684.45858109869
109.60000000000002        3025                     0.09813213348388672      -0.3387090712785721      0.35263827158788674      80684.45859092794
114.4                     3025                     0.0943288803100586       -0.36405104398727417     0.37607326452271717      69361.67368035036
114.42009776740007        3025                     0.09437298774719238      -0.3640493303537369      0.37608267142655744      69361.6736784539
114.5                     3025                     2365888.9581284076       -0.36405230358240226     2365888.9581284355       69361.67367090019
119.2                     3025                     0.09087419509887695      -0.389326773583889       0.39979176575326003      58463.48260975253
119.22009776740006        3025                     0.09094548225402832      -0.3893261030316353      0.39980732264956986      58463.48260792544
119.30000000000001        3025                     0.09127187728881836      -0.38932777063910196     0.39988331870014066      58463.48260064639
124                       3025                     2194022.6348137558       -0.4141844275927274      2194022.634813795        47950.82685351184
124.0799022326            3025                     0.08798038959503174      -0.41418807208538055     0.4234292243233785       47950.826846487966
124.10000000000002        3025                     0.08805191185388637      -0.4141865447163582      0.423442597060334        47950.826844718904
128.8                     3025                     2121989.802766949        -0.464358462988886       2121989.8027669997       37790.532698044284
128.82009776740006        3025                     0.08494687080383301      -0.46435797214508057     0.4720638697825269       37790.532696337934
128.89999999999998        3025                     0.08532410860061646      -0.4643591551284758      0.47213306224000207      37790.53268953583
133.60000000000002        3025                     0.08227336406707764      -0.4938182532787323      0.500624983102294        27947.22093191014
133.6200977674            3025                     0.08236467838287354      -0.4938175677350737      0.5006393217166409       27947.22093025563
133.70000000000002        3025                     2069047.6166046616       -0.4938187429948479      2069047.6166047205       27947.2209236575
138.39999999999998        3025                     0.0799809992313385       -0.5360989830732427      0.5420323605562756       18389.369888882542
138.47990223259995        3025                     0.08038735389709473      -0.5361002162098885      0.5420936897685361       18389.369882475825
138.5                     3025                     0.08049726486206055      -0.5360998101532459      0.542109597864324        18389.36988085911
143.2                     3025                     1946779.5953924917       -0.5495567235875753      1946779.5953925694       9085.859448183997
143.22009776740006        3025                     0.07801151275634766      -0.5495566222816706      0.5550660115843633       9085.85944661761
143.3                     3025                     0.07859565317630768      -0.5495569384421453      0.555148723576047        9085.859440361068
148                       3025                     1902268.0301173392       -3.1085770200781786E-8   1902268.0301173392       1.979945405666907E-11
148.0799022326            3025                     0                        0                        0                        0
148.10000000000005        3025                     0                        0                        0                        0
150                       3025                     0.04416368001497517      -1.9759711554788957      1.976464631081737        0
152.5804877515427         3025                     3.6990473585604285E-12   -11.824530769811052      11.824530769811052       0
155.41967634114576        3025                     -1.690871931722461E-11   -22.566849150482476      22.566849150482476       1.6638442874663497E-14
158.5435012236754         3025                     -0.014629947493602913    -34.148420171730805      34.14842330562913        0
161.9804979531092         3025                     -0.02083882411903204     -46.597489697475986      46.59749435713224        1.824869157382828E-17
165.76206284946545        3025                     -0.018443251574041142    -59.95138127753226       59.95138411444372        2.2377771641733325E-17
169.92273979829397        3025                     -0.02783656920644262     -74.21911755919156       74.21912277937325        0
174.50053580258648        3025                     -0.0296169116933811      -89.39977883300648       89.3997837388432         -1.0164779453203902E-17
179.5372681696158         3025                     0                        -105.47619709840623      105.47619709840623       0
185.0789465041883         3025                     -0.03442246133559479     -122.42970839887266      122.42971323799969       -3.3831179493118E-18
191.17619299774827        3025                     0                        -140.17048310526417      140.17048310526417       0
197.88470485259555        3025                     -0.05220114912697227     -158.5953070676921       158.5953156586143        0
205.28013074462487        3025                     -0.05410629168753189     -177.5410621739845       177.54107041853          1.4896183304319702E-16
213.480200410456          3025                     -0.05183956792765798     -196.93466156339096      196.93466838631574       0
497.8367321463272         3025                     0.0023757642105173282    -4.515654266838586       4.515654891803969        0
500                       3025                     0                        0                        0                        0
222.57522791892592        3025                     0                        -216.34819566667343      216.34819566667343       0
232.6628892133791         3025                     -0.10288056827141645     -235.47080348967495      235.47082596467115       -1.832711329981275E-16
243.8515206162901         3025                     -0.1342270087781401      -253.53594961902877      253.53598515025945       0
494.27443211234316        3025                     -0.0036559989282354266   -11.99128886597623       11.991289423311143       8.379595973649969E-18
256.2612823059539         3025                     -0.1717388028416451      -269.8455279388945       269.84558258907464       0
488.40831548208973        3025                     1.847503062591529E-12    -24.404259773777298      24.404259773777298       0
270.0089245050872         3025                     -0.1939364043759042      -283.2372626295601       283.23732902499864       0
285.1992715834791         3025                     -0.13616522339376047     -292.6560075694697       292.6560392465352        0
478.7484541589402         3025                     -0.039591801992045816    -44.99672635796121       44.996743776011456       4.121836858059331E-17
301.9831272709533         3025                     -0.12998315573975106     -296.5109751462253       296.51100363694127       0
462.8413512722982         3025                     -0.00968711100618691     -79.10189024413606       79.10189083729584        0
388.69180348151406        3025                     0.0628354142064893       -222.75432285687148      222.75433171930152       0
414.3699290597541         3025                     0.02054253296681452      -177.9857655252207       177.98576671069657       0
363.6753532669888         3025                     -0.08799913134879489     -257.98658602207826      257.9866010303138        8.427030658478388E-16
320.528374778901          3025                     -0.09255908955233849     -293.27617220902926      293.27618681503145       2.9038182335771886E-17
341.0266991129686         3025                     -0.17496306036829878     -280.95479559627256      280.9548500749111        0
439.3009148329566         3025                     -0.08379729714039286     -128.6865623394126       128.68658962270518       1.0350473643313321E-16
47.5599984380289          3025                     1.30385160446167E-7      -5.9604644775390625E-8   1.4336318824361158E-7    275000
46.807607232207744        3025                     1.1175870895385742E-7    -2.9802322387695312E-8   1.156641147752108E-7     275000.0000000002
45.353738189019474        3025                     7.450580596923828E-8     -3.725290298461914E-8    8.33000234328132E-8      275000.00000000035
43.06645434188018         3025                     1.4901161193847656E-7    -4.470348358154297E-8    1.55572690202453E-7      275000.00000000047
42.60259746699742         3025                     -5.9604644775390625E-8   -3.818422555923462E-8    7.078664252780327E-8     275000.00000000047
38.484510414059265        3025                     -1.4901161193847656E-8   -2.9802322387695312E-8   3.332000937312528E-8     275000.00000000035
41.57612847590766         3025                     -5.494803190231323E-8    -3.4924596548080444E-8   6.51077080996085E-8      275000.00000000047
37.40376015249059         3025                     -5.9604644775390625E-8   7.450580596923828E-9     6.006850114687196E-8     275000.00000000035
33.4418248859253          3025                     -1.1920928955078125E-7   -7.450580596923828E-8    1.4057727354849284E-7    275000.0000000002
31.125662471778938        3025                     -2.8870999813079834E-8   -7.82310962677002E-8     8.338848273864342E-8     274999.99999999994
26.06793888091475         3025                     4.7031790018081665E-8    -3.4458935260772705E-8   5.830443800956365E-8     275000
24.93578861225649         3025                     8.195638656616211E-8     -1.6763806343078613E-8   8.365329940947003E-8     275000.00000000006
17.983429737153536        3025                     -1.3504177331924438E-8   -1.7695128917694092E-8   2.2259388869101404E-8    275000.0000000002
76.14245853954714         3025                     3493315.157526478        -0.366782009601593       3493315.1575264973       176248.15223575098
75.96137712184967         3025                     3499006.446857929        0.22048068046569824      3499006.446857936        176531.62198889116
80.49636317366739         3025                     3304382.6764560044       -0.8350941985845566      3304382.67645611         161457.54294291153
81.60892780586093         3025                     3263502.3221120536       6.484735757112503        3263502.3221184965       158132.47082294812
84.9179325324331          3025                     3136358.94789128         0.32643718861032667      3136358.9478912973       147546.87907327694
86.5876170997934          3025                     3079242.79337037         5.876901864422152        3079242.793375978        142669.2023921017
89.5123829002056          3025                     2978630.653934151        3.839572652591059        2978630.6539366255       133812.28536004623
71.63046573257401         3025                     3710550.8650330305       26.23868751525879        3710550.8651258023       192134.662560798
91.42909742956498         3025                     2920210.611299902        0.17835786833407138      2920210.611299908        128454.72442374122
94.36405745783104         3025                     2829355.0879727565       -1.4425881848819506      2829355.0879731243       120019.0818893272
70.31238290020555         3025                     3777594.9651040807       8.211194886721698        3777594.965113005        196695.4493058653
95.77229753390048         3025                     2793869.459154822        -4.695846128357125       2793869.4591587684       116341.65248023879
67.3876170997934          3025                     3941555.10426078         12.953183934092522       3941555.104282064        207979.607303034
65.70780127536447         3025                     4040395.8937873505       -73.89789382368326       4040395.894463138        214283.00069482755
99.50316684830148         3025                     2689108.1815188825       10.308497725640565       2689108.181538641        106116.12157037976
100.78206746756584        3025                     2661654.2984792367       -0.5654621548199555      2661654.2984792967       102961.88448524354
62.40626932658895         3025                     4254131.578375936        19.825266927480698       4254131.578422131        227968.8944927644
60.71238290020557         3025                     4372881.501507409        13.456841484921673       4372881.501528114        234843.28191045657
104.09107219413808        3025                     2577022.141094759        -3.468522975144057       2577022.141097093        94296.10188945007
57.7876170997934          3025                     4594214.06605164         20.43677349267652        4594214.066097095        247950.02861353708
105.58852311595525        3025                     2547807.5574009717       2.4215331375598907       2547807.5574021228       90715.45767832939
56.11234002831396         3025                     4733710.932230204        -15.568098824650116      4733710.932255805        255294.21736489635
108.89112406633602        3025                     2470539.075257132        -22.242291931062937      2470539.0753572555       82430.04333269579
52.802910603552874        3025                     5030594.441517159        -2.954244503459525       5030594.441518026        271440.6701931088
51.49181869850068         3025                     0                        -7.82933701592685E-8     7.82933701592685E-8      275000.00000000006
110.62311583838924        3025                     2439903.1237552427       -2.6452313260964795      2439903.1237566764       78422.78491465257
50.69186088892302         3025                     5.9604644775390625E-8    0                        5.9604644775390625E-8    275000.0000000001
113.46770373715043        3025                     2378730.308951918        -2.1400309056043625      2378730.3089528806       71570.21040069294
115.44459506780102        3025                     2346750.5572525486       -2.0202412381768227      2346750.557253418        67135.90564962363
118.25540493219795        3025                     2290966.731921049        -2.1271887149381956      2290966.7319220365       60618.84590007869
120.00238882473793        3025                     2267197.915726524        -0.6612616404891014      2267197.9157266202       56866.39083460976
123.31234002831395        3025                     2206326.1150189713       -1.9581423699855804      2206326.11501984         49463.79870187129
124.79381703694166        3025                     2190220.253693506        0.31051021069288254      2190220.253693528        46426.989923216184
128.09176022951323        3025                     2133839.5264666453       -1.5256418262439349      2133839.5264671906       39297.60649172798
129.73594254216798        3025                     2118581.199167149        -0.03557465155043195     2118581.199167149        36013.835717437425
132.6709025704339         3025                     2071720.8443432273       -0.6557741708174326      2071720.8443433312       29865.282947961095
134.3921987246342         3025                     2058490.844572343        -1.2324579126236197      2058490.844572712        26518.682494304827
137.6937306734101         3025                     2009123.4209342226       -2.4081007800996304      2009123.4209356657       19804.71256793874
138.9968331516976         3025                     2005686.1729463153       -4.0688302628695965      2005686.1729504424       17391.098365045622
142.7051098248898         3025                     1953569.3017494716       1.460817025514954        1953569.3017500178       10050.981622532694
143.99610160095827        3025                     1955216.4683952588       -1.0723094120621681      1955216.4683955528       7721.553469778932
147.29283215749916        3025                     1911445.8021049064       -1.7058673582505435      1911445.8021056678       1348.4678913239993
148.4109093702162         3025                     -0.33062133660417126     -0.24709724318429296     0.41275600032853105      1.1198153262388728E-4
76.51274653982333         3025                     3476408.3534822464       -0.018085479736328125    3476408.3534822464       174957.75477281952
76.63112287238759         3025                     3471037.1909370422       -0.6265277862548828      3471037.190937099        174546.54826690452
76.49169292437708         3025                     3477365.2402750254       -0.339968204498291       3477365.2402750417       175030.95581039117
76.37965483957545         3025                     3482465.4314961135       0.2849484384059906       3482465.431496125        175420.83880063685
76.64901786182752         3025                     3470227.504367113        -0.6049766540527344      3470227.5043671657       174484.44134300842
76.77669047817338         3025                     3464455.5033512115       0.30253249406814575      3464455.5033512246       174041.75678388163
76.32637576909939         3025                     3484897.446937084        -0.38540589809417725     3484897.4469371056       175606.446109553
76.2372785963856          3025                     3488968.319342673        0.16900324821472168      3488968.319342677        175917.1219776816
76.8962302432444          3025                     3459072.77943182         -0.6005704402923584      3459072.779431872        173627.93838663466
76.9621395180649          3025                     3456106.721020341        -0.4867565631866455      3456106.721020375        173400.05115357056
77.01470144051075         3025                     3453750.772749901        0.08673715591430664      3453750.7727499017       173218.4534398106
77.1960208450459          3025                     3445634.5191525817       -2.3282769918441772      3445634.519153368        172592.95739813166
77.20693721554767         3025                     3445150.31699419         0.14009767770767212      3445150.316994193        172555.3461997828
77.2356617391751          3025                     3443869.0178049803       0.6544128656387329       3443869.017805042        172456.40434424972
77.38869462750696         3025                     3437056.787022114        0.9295926094055176       3437056.787022239        171929.90031706652
75.87639575119375         3025                     3502923.937885046        -0.3028981685638428      3502923.937885059        176829.1388095576
75.76580102883908         3025                     3508037.532916665        -0.06022524833679199     3508037.5329166655       177216.82647567784
77.4857634471479          3025                     3432755.7401685715       -0.3530475050210953      3432755.7401685896       171596.47805467303
77.60732561135404         3025                     3427373.274513364        -0.2615068666636944      3427373.274513374        171179.51198979403
75.75575860091355         3025                     3508501.7432148457       -0.20819544792175293     3508501.7432148517       177252.058020246
75.63421196861738         3025                     3514140.2874209285       -0.2850770950317383      3514140.28742094         177678.8472737929
75.74568308234423         3025                     3508969.2363915443       0.25005364418029785      3508969.236391553        177287.41035357048
77.69553504311959         3025                     3423487.1396842003       0.08681602030992508      3423487.1396842017       170877.35669134307
77.82760596137487         3025                     3417673.679704085        -1.8131253123283386      3417673.679704566        170425.5975760412
75.52873949970284         3025                     3519048.154331684        0.04428815841674805      3519048.1543316846       178049.751162752
75.52430241574388         3025                     3519254.4179627895       -0.23156464099884033     3519254.417962797        178065.36593210153
77.89501964808939         3025                     3414718.8123720884       0.4112471342086792       3414718.812372113        170195.29915422594
78.01147789223874         3025                     3409618.4958776236       0.19923627376556396      3409618.495877629        169797.9239668365
75.51787282708352         3025                     3519553.9426612854       -0.8622562885284424      3519553.942661391        178087.99424938054
75.39042364912495         3025                     3525504.515766382        0.24206197261810303      3525504.5157663906       178536.93765563567
75.33182549841314         3025                     3528247.296799898        -0.43026256561279297     3528247.2967999247       178743.60606153402
78.16925459329502         3025                     3402741.9841914773       -0.7836354970932007      3402741.984191567        169260.50840447054
78.29219499105777         3025                     3397389.3728366494       -0.3576373755931854      3397389.372836668        168842.5029881104
75.1682064004786          3025                     3535925.0289154053       0.45635533332824707      3535925.028915435        179321.5226221076
75.19847738956152         3025                     3534504.0283477306       0.25740740075707436      3534504.02834774         179214.50818170563
75.14689902925738         3025                     3536929.526814699        -0.12823379039764404     3536929.5268147015       179396.87460222896
78.40062886802778         3025                     3392696.594953537        2.734509587287903        3392696.594954639        168474.36517904548
78.60535586179559         3025                     3383855.267911911        -2.4506193101406097      3383855.2679127986       167780.69370733498
74.9791162744385          3025                     3544841.931211233        0.9030678272247314       3544841.931211348        179990.97400500756
74.91974855982134         3025                     3547654.079362273        -0.3937220573425293      3547654.079362295        180201.5066919033
78.7757852257872          3025                     3376539.695280552        2.148249924182892        3376539.6952812355       167204.60880038043
78.95445589921735         3025                     3368891.8378720284       -2.9629200100898743      3368891.8378733313       166602.00327933943
74.71874906206284         3025                     3557196.272572994        -0.8002411127090454      3557196.272573084        180915.54160936078
74.79515523245354         3025                     3553561.9330095053       1.1742055416107178       3553561.9330096995       180643.88866983666
79.14733824596183         3025                     3360688.7986471653       3.554438889026642        3360688.798649045        165952.994576685
79.33358918921083         3025                     3352782.4446421415       -5.508811950683594       3352782.444646667        165327.79853992356
74.44657751603097         3025                     3570200.1056972444       -1.744965672492981       3570200.105697671        181885.47715198947
74.56380433669408         3025                     3564587.951104164        1.4305971264839172       3564587.951104451        181467.28287003367
79.68088784979165         3025                     3338187.6300655473       10.197969477623701       3338187.630081124        164165.91606745747
79.779251002633           3025                     3334001.915254876        14.78872436285019        3334001.9152876753       163837.76450389484
74.22278792835516         3025                     3580964.4613392353       -0.5747565031051636      3580964.4613392814       182685.65452972433