% Model:              RadialGradingFinal.mph
% Version:            COMSOL 4.3.2.164
% Date:               Mar 19 2014, 20:24
% Dimension:          2
% Nodes:              121
% Expressions:        4
% Description:        Electric field, r component, Electric field, z component, Electric field norm, Electric potential
% Length unit:        mm
% r                       z                        es.Er (V/m)              es.Ez (V/m)              es.normE (V/m)           V (V)
48.74625045611347         3000                     1.7881393432617188E-7    -6.193550879455655E-8    1.8923644035662133E-7    275000.00000000023
50                        3000                     -8.940696716308594E-8    3.413431782570433E-8     9.570139722453024E-8     275000.00000000006
0                         3000                     -2.421438694000244E-8    9.313225746154785E-10    2.42322903708698E-8      275000.00000000006
14.596045179748145        3000                     7.450580596923828E-9     -5.587935447692871E-9    9.313225746154785E-9     275000.00000000006
52.000000000000014        3000                     5.7220458984375E-6       1.3552527156068805E-20   5.7220458984375E-6       275000.0000000001
52.01111016681834         3000                     2.384185791015625E-7     2.9802322387695312E-8    2.4027400458748785E-7    275000
52.099999999999994        3000                     3479022.542835988        -4.811413693758423E-9    3479022.542835988        275000
56.800000000000004        3000                     3191144.6617523283       -18.686816927045577      3191144.6618070416       259325.1081187138
56.8430400556734          3000                     0.13079404830932617      -18.686817572822918      18.687275298529652       259325.10811315037
56.9                      3000                     0.1346273422241211       -18.68681738525629       18.687302333702185       259325.10810559403
61.599999999999994        3000                     3107831.4983343333       -17.630492449588385      3107831.4983843416       244125.46146586907
61.60503414858537         3000                     0.1246957778930664       -17.630492467433214      17.630933431932743       244125.4614652421
61.699999999999996        3000                     0.13115501403808594      -17.630495625211413      17.630983456072613       244125.4614530899
66.4                      3000                     0.1218571662902832       -14.18597598239434       14.186499347691289       229273.05467953888
66.41432511677391         3000                     0.12283593416213989      -14.185974461957812      14.186506268353767       229273.05467778665
66.5                      3000                     3205283.382181257        -14.185974687337891      3205283.382212649        229273.0546670323
71.19999999999999         3000                     2993736.2659754753       -11.270939208567356      2993736.265996692        214713.09279800975
71.25270642084573         3000                     0.12292671203613281      -11.270940229296684      11.271610560559232       214713.09279161357
71.3                      3000                     0.12575888633728027      -11.270941011607647      11.271642585915862       214713.0927857329
76                        3000                     2947628.3303259388       -9.00102337773154        2947628.330339682        200402.62599968805
76.00905375464136         3000                     0.11856365203857422      -9.00102361291647        9.00180445354511         200402.62599861695
76.09999999999998         3000                     0.12365654110908508      -9.001019498333335       9.001868858716836        200402.62598760525
80.79999999999998         3000                     0.11643218994140625      -7.248554646965779       7.249489700999908        186305.69592095105
80.8442279337544          3000                     0.11882233619689941      -7.248554386198521       7.24952822170223         186305.69591574903
80.9                      3000                     3044989.5415438563       -7.248555071652108       3044989.541552484        186305.69590903868
85.6                      3000                     0.11518001556396484      -5.867477444931663       5.86860784196449         172391.98621385012
85.66270431363841         3000                     0.11835241317749023      -5.867477647960186       5.868671165009787        172391.98620652806
85.69999999999997         3000                     0.12027931213378906      -5.867477938532829       5.868710631143508        172391.98620207806
90.44570383368982         3000                     0.11622214317321777      -4.7690960839390755      4.770512031680331        158636.28155029815
90.5                      3000                     0.11887335777282715      -4.769095146499491       4.770576421309398        158636.281543915
90.39999999999999         3000                     2848632.7534073144       -4.769095644354862       2848632.7534113065       158636.28155555876
95.19999999999997         3000                     0.11304140090942383      -3.891448359935149       3.893089864922402        145016.6434191035
95.25249463062593         3000                     0.11545467376708984      -3.891447376459837       3.893159702022358        145016.64341310624
95.29999999999995         3000                     2942739.9120960906       -3.8914483416151726      2942739.9120986634       145016.64340756738
100.08548836805988        3000                     0.11597621440887451      -3.1823178765391615      3.1844304906292633       131514.31095716282
100.10000000000001        3000                     2917480.7838633433       -3.182317450642667       2917480.783865079        131514.31095547497
100                       3000                     0.11219823360443115      -3.1823136918246746      3.184290953540324        131514.31096691842
104.80000000000001        3000                     2786650.5435337126       -2.589356638214827       2786650.543534916        118112.81074178638
104.89999999999996        3000                     0.11584516614675522      -2.589361634105444       2.5919517307806457       118112.81073041991
109.60000000000004        3000                     0.11087048053741455      -2.100251043215394       2.1031753868809773       104797.55375316592
109.69999999999999        3000                     2877096.4268987477       -2.100251859663334       2877096.426899514        104797.55374186714
114.39999999999999        3000                     0.11037600040435791      -1.6855304278435173      1.6891405165502404       91555.59024567193
114.46448858078496        3000                     0.1130102276802063       -1.6855304837226868      1.6893147495711882       91555.59023846973
114.49999999999999        3000                     2860749.7995806467       -1.6855305209755838      2860749.799581143        91555.59023443105
119.2                     3000                     0.10992670059204102      -1.3341774344444275      1.3386983626208582       78375.1397451392
119.3                     3000                     0.11391371488571167      -1.3341791946440935      1.3390334043108205       78375.13973394426
124                       3000                     2739605.4940767474       -1.0254285718556493      2739605.4940769393       65245.357465477005
124.10000000000002        3000                     0.11348626017570496      -1.025429074652493       1.0316898363322844       65245.35745432091
128.8                     3000                     0.10936903953552246      -0.7480581603204756      0.7560109774540162       52156.05523520201
128.90000000000003        3000                     2828186.867732251        -0.7480578823015094      2828186.86773235         52156.05522407615
133.65769847195813        3000                     0.11131644248962402      -0.4948576763122918      0.5072232941947232       39097.38902442031
133.70000000000002        3000                     0.1128968596458435       -0.4948574582244102      0.5075722656708276       39097.389019678005
133.6                     3000                     0.10917168855667114      -0.4948574574664235      0.5067567076935913       39097.389030781254
138.39999999999998        3000                     2726514.9303508773       -0.23861279757693368     2726514.9303508876       26059.30504530941
138.485248474968          3000                     0.11221516132354736      -0.23861281310644084     0.26368222732948654      26059.305035877627
138.49999999999997        3000                     0.11274367570877075      -0.2386131372869645      0.26390787350560846      26059.305034218483
143.2535049203946         3000                     0.11100780963897705      -0.02262178433351737     0.11328935928530771      13031.084891820901
143.29999999999998        3000                     2817620.708432144        -0.022621832787992152    2817620.708432144        13031.084886620074
143.2                     3000                     0.10904714465141296      -0.022621843963861465    0.11136888066669018      13031.084897707913
148                       3000                     0                        0                        0                        0
148.10000000000005        3000                     -5.370974655231184E-19   -9.633404965357037E-33   5.370974655231184E-19    1.338686444137118E-35
220.8177006552822         3000                     0                        0                        0                        0
264.3571085844776         3000                     0                        0                        0                        0
403.9482582568378         3000                     0                        0                        0                        0
500                       3000                     0                        0                        0                        0
307.8965165136737         3000                     0                        0                        0                        0
150                       3000                     6.757383332668487E-19    -5.130512957191217E-33   6.757383332668487E-19    -1.3128820027018873E-35
151.08446308065373        3000                     0                        0                        0                        0
197.50853957474956        3000                     0                        0                        0                        0
199.2501869388832         3000                     0                        0                        0                        0
48.111184805181715        3000                     2.9802322387695312E-8    -8.940696716308594E-8    9.424321830774485E-8     275000.00000000023
45.31963393536399         3000                     2.421438694000244E-8     -9.546056389808655E-8    9.848378442475099E-8     275000.0000000004
44.62081101686082         3000                     2.2351741790771484E-8    -1.043081283569336E-7    1.0667607980427409E-7    275000.00000000035
38.94768034685605         3000                     -2.0489096641540527E-8   -3.213062882423401E-8    3.810748469562226E-8     275000.0000000003
42.195245629549746        3000                     -1.4901161193847656E-8   -2.9802322387695312E-8   3.332000937312528E-8     275000.0000000004
37.40859643198606         3000                     1.4901161193847656E-8    -3.5390257835388184E-8   3.839941346661803E-8     275000.00000000035
31.12499235247359         3000                     -3.3527612686157227E-8   -1.4901161193847656E-8   3.668985441996196E-8     275000.0000000003
24.102335982021707        3000                     -1.862645149230957E-8    0                        1.862645149230957E-8     275000.0000000001
151.1305715937866         3000                     0                        0                        0                        0
151.1832454874861         3000                     0                        0                        0                        0
152.62741723532486        3000                     0                        0                        0                        0
154.13550011613276        3000                     0                        0                        0                        0
181.26176463320246        3000                     0                        0                        0                        0
155.36762237091455        3000                     0                        0                        0                        0
157.95674192889456        3000                     0                        0                        0                        0
161.77871640645898        3000                     0                        0                        0                        0
163.04175863414804        3000                     0                        0                        0                        0
160.824512298621          3000                     0                        0                        0                        0
170.22611444620645        3000                     0                        0                        0                        0
180.08663532168376        3000                     0                        0                        0                        0
149.4280719930182         3000                     2.6141954147490927E-19   1.4948217072124804E-19   3.0113966199836276E-19   2.684784238208532E-22
144.72333159938535        3000                     2789968.768879371        -87.91347902175039       2789968.770264473        9040.229540596725
141.5386265256841         3000                     2758271.117204888        -0.1887927972884491      2758271.1172048943       17586.83353423045
139.19160958372586        3000                     2804738.893890105        -0.16740172822028399     2804738.8938901103       24114.745134653313
136.32948901837054        3000                     2768077.6697460935       -0.35920997336506844     2768077.6697461167       31747.612204349683
135.6847645396226         3000                     2781247.2057655975       -0.37608128041028976     2781247.205765623        33536.47216251469
130.62023485129413        3000                     2791771.143187411        -0.6543640419840813      2791771.1431874875       47322.23140825185
112.38808416981482        3000                     2808542.2261639982       -1.9459992184087072      2808542.2261646725       97156.20504295264
111.57622614257328        3000                     2828923.198530061        76.87288630753756        2828923.199574529        99444.57610094106
104.96169355853878        3000                     2893455.9944321145       -439.95638859272003      2893456.027880286        117934.21363526658
100.46728861651141        3000                     2907042.4757097997       -3.1513965727513673      2907042.4757115077       130444.67041055142
97.90994350707382         3000                     2864606.923126191        -3.3769329339265823      2864606.923128181        137438.62879436466
97.31669957582            3000                     2882007.2642159387       -76.32639810442924       2882007.265226644        139143.17105382448
93.34792334302553         3000                     2881578.9914716743       -135.58491709828377      2881578.9946614653       150301.5971775023
92.29460464743644         3000                     2914679.3628354073       -4.377698704600334       2914679.362838695        153354.1534357053
84.89587584361453         3000                     2901768.885183106        509.8192082233727        2901768.929968827        174426.9282237083
82.44151990550463         3000                     2988309.1632292643       -261.01736041903496      2988309.174628698        181655.10224073415
86.46155600077904         3000                     2979544.818530144        -5.686215683427382       2979544.81853557         170113.25703716054
78.34164970247363         3000                     3003489.3414191455       -8.153679040348349       3003489.341430213        193573.7959105525
54.89711937115057         3000                     3307696.8769273236       -11.226519837975502      3307696.8769463752       265508.3679556716
68.88357679423774         3000                     3094778.3856130242       -12.638172522187233      3094778.3856388293       221764.88111179133
75.74265161573373         3000                     2958267.425841108        -9.123923687118634       2958267.425855178        201162.56236493532
68.8161905515338          3000                     3097763.7280608416       -12.751683056354523      3097763.728087087        221973.5255857247
58.33025407856165         3000                     3283695.3498369157       -16.398760572075844      3283695.3498778637       254570.81776085042
61.55838659987676         3000                     3106964.954694502        -1519.8349593132734      3106965.326423536        244254.83457864277
65.9397896551486          3000                     3067989.7891770974       -14.684005102900759      3067989.7892122376       230679.92072480536
62.68463945010992         3000                     3226464.061813673        -824.5204363614321       3226464.167166456        240922.53801307338
51.295363283406324        3000                     5.21540641784668E-8      -1.4901161193847656E-8   5.4241045484546706E-8    275000.00000000006
148.75249720394226        3000                     -2.367323156365376E-19   1.845331109302384E-19    3.0015772236647344E-19   2.749157041859432E-22
149.30319297895286        3000                     1.7618455120199916E-19   1.6507682894465365E-19   2.4143602783485383E-19   2.9158740321617096E-22
61.467113324661085        3000                     3113867.889306277        1428.6168858855963       3113868.2170250774       244538.6483809482
