% Model:              RadialGradingFinal.mph
% Version:            COMSOL 4.3.2.164
% Date:               Mar 19 2014, 20:24
% Dimension:          2
% Nodes:              210
% Expressions:        4
% Description:        Electric field, r component, Electric field, z component, Electric field norm, Electric potential
% Length unit:        mm
% r                       z                        es.Er (V/m)              es.Ez (V/m)              es.normE (V/m)           V (V)
48.257293610326435        3878.5000000000005       0                        0                        0                        275000.00000000023
50                        3878.5000000000005       2.9802322387695312E-8    -1.0587911840678754E-22  2.9802322387695312E-8    275000.00000000006
0                         3878.5000000000005       -2.421438694000244E-8    0                        2.421438694000244E-8     275000
10.179785719325478        3878.5000000000005       -1.862645149230957E-9    0                        1.862645149230957E-9     275000.0000000002
52.000000000000014        3878.5000000000005       -9.5367431640625E-7      6.988339758046975E-8     9.562313480692412E-7     275000.00000000006
52.03777503564856         3878.5000000000005       0                        -7.426029719258453E-9    7.426029719258453E-9     275000
52.0936242343781          3878.5000000000005       1.430511474609375E-6     0                        1.430511474609375E-6     275000
52.09999999999999         3878.5000000000005       3472159.48341763         1.4901147547305349E-8    3472159.48341763         275000.00000000006
56.800000000000004        3878.5000000000005       3184929.216586128        -81.96552446484556       3184929.2176408367       259369.0806543058
56.851417432041494        3878.5000000000005       0.13118267059326172      -81.9655237197876        81.96562869613169        259369.08064765608
56.89999999999999         3878.5000000000005       0.13466739654541016      -81.96552561223507       81.96563623981488        259369.08064119855
61.6543810177359          3878.5000000000005       0.1280689239501953       -79.30311839282513       79.3032218038821         244168.0184379533
61.699999999999996        3878.5000000000005       0.13115787506103516      -79.30311724170545       79.30322570135385        244168.01843204006
61.599999999999994        3878.5000000000005       3105989.6562961712       -79.30311799049025       3105989.657308568        244168.01844481696
66.4                      3878.5000000000005       0.12189531326293945      -71.76858516067975       71.76868867711836        229310.81222178106
66.4993406441671          3878.5000000000005       0.12825703620910645      -71.76858530193567       71.76869990538044        229310.8122093541
66.5                      3878.5000000000005       3206181.677953601        -71.76858534016097       3206181.678756851        229310.8122092695
71.2                      3878.5000000000005       2994574.5294893384       -65.35270160623365       2994574.5302024577       214746.75263892108
71.29798886040818         3878.5000000000005       0.1257333755493164       -65.3527041375637        65.35282508793068        214746.75262688764
71.3                      3878.5000000000005       0.1257568597793579       -65.35270568728447       65.3528266828345         214746.7526266348
76                        3878.5000000000005       2948312.0280704275       -60.06989900076166       2948312.0286823697       200432.96671253242
76.06814963195505         3878.5000000000005       0.12190866470336914      -60.0698982797141        60.07002198316336        200432.96670435782
76.09999999999998         3878.5000000000005       0.1236562728881836       -60.06989911198616       60.07002638752559        200432.9667004474
80.79999999999998         3878.5000000000005       0.11652946472167969      -55.70659757944227       55.70671945999039        186333.35121548345
80.87313003334287         3878.5000000000005       0.120452880859375        -55.70659177005291       55.706721995930025       186333.3512068205
80.90000000000002         3878.5000000000005       3045470.876110211        -55.706592298556885      3045470.876619693        186333.35120356423
85.6                      3878.5000000000005       0.11515045166015625      -52.03423661738092       52.03436402974579        172417.42121264758
85.64902011678336         3878.5000000000005       0.11766386032104492      -52.03423645719886       52.03436949236253        172417.42120694177
85.69999999999997         3878.5000000000005       0.12025129795074463      -52.034236785024405      52.03437573541789        172417.42120087735
90.49752569034167         3878.5000000000005       0.11881637573242188      -48.90969969332218       48.90984401347138        158659.85892839864
90.5                      3878.5000000000005       0.1188955307006836       -48.909696742892265      48.9098412554049         158659.8589281046
90.39999999999999         3878.5000000000005       2849017.4144708663       -48.90970027346059       2849017.414890688        158659.85893975067
95.19999999999997         3878.5000000000005       0.11305356025695801      -46.223633524829         46.2237717775733         145038.6580248382
95.21051060788326         3878.5000000000005       0.11353898048400879      -46.22363343089819       46.223772873426704       145038.65802364735
95.29999999999995         3878.5000000000005       2943033.6121963635       -46.223633548769584      2943033.6125593605       145038.65801329914
100.03963173653216        3878.5000000000005       0.11403083801269531      -43.89905269443989       43.89920079570046        131534.99159357554
100.1                     3878.5000000000005       2917038.5167276263       -43.899052019392414      2917038.5170579487       131534.99158661076
100                       3878.5000000000005       0.1121978759765625       -43.8990516141057        43.899194992406066       131534.99159805776
104.85275714715621        3878.5000000000005       0.11378216743469238      -41.86770666702261       41.86786127732674        118132.33901879037
104.89999999999996        3878.5000000000005       0.11584285274147987      -41.86770582944155       41.86786609068087        118132.33901336625
104.80000000000001        3878.5000000000005       2786217.8670644686       -41.86770758591537       2786217.867379036        118132.33902473241
109.60000000000002        3878.5000000000005       0.11086416244506836      -40.083354440873755      40.08350775687213        104816.0842100675
109.69270276938992        3878.5000000000005       0.11477375030517578      -40.08335353061557       40.08351785053391        104816.0841996064
109.69999999999999        3878.5000000000005       2877278.7936550677       -40.083353551270385      2877278.793934268        104816.08419876768
114.39999999999999        3878.5000000000005       0.1103590726852417       -38.51768075531556       38.51783885283974        91573.2493652784
114.46592389054156        3878.5000000000005       0.11307048797607422      -38.51767994463444       38.51784590618413        91573.24935791321
114.50000000000001        3878.5000000000005       2860914.235163003        -38.517679976299654      2860914.2354222927       91573.24935403666
119.20000000000002        3878.5000000000005       2748110.496437259        -37.14373060550566       2748110.4966882784       78392.04121032989
119.27758854880175        3878.5000000000005       0.11306095123291016      -37.143730744719505      37.14390281614083        78392.04120167869
119.3                     3878.5000000000005       0.11391985416412354      -37.14373134449124       37.143906040222994       78392.04119913561
124                       3878.5000000000005       2739744.9986564033       -35.92970680072917       2739744.998891999        65261.59037082577
124.06179279280114        3878.5000000000005       0.11201632022857666      -35.92970705777407       35.929881671297736       65261.59036397832
124.10000000000002        3878.5000000000005       0.11348825693130493      -35.92970708757639       35.92988632021396        65261.59035967059
128.835474582868          3878.5000000000005       0.11070024967193604      -34.8756249807775        34.87580066959193        52171.70336596226
128.90000000000003        3878.5000000000005       2828294.7284337766       -34.875624772161245      2828294.728648802        52171.70335874011
128.8                     3878.5000000000005       0.10934959352016449      -34.87562478380278       34.87579621161647        52171.70336986554
133.69792320841782        3878.5000000000005       0.11283481121063232      -33.995696874917485      33.99588412890442        39112.53912392346
133.70000000000002        3878.5000000000005       0.1129118800163269       -33.99569686499839       33.99588437486971        39112.53912368904
133.6                     3878.5000000000005       0.10917532444000244      -33.99569649621844       33.99587180106528        39112.5391347933
138.39999999999998        3878.5000000000005       2726580.776105555        -33.2824463415768        2726580.776308689        26074.030290404036
138.49378213268082        3878.5000000000005       0.11252832412719727      -33.28244616277516       33.28263639199512        26074.030280013307
138.49999999999991        3878.5000000000005       0.11272558569908142      -33.28244495907323       33.28263585582443        26074.030279313098
143.2                     3878.5000000000005       0.10801711678504944      -32.689635828140055      32.68981428937669        13045.61572066405
143.25163627776823        3878.5000000000005       0.09709244966506958      -32.69018158875406       32.6903257746003         13045.61571537545
143.2970771484644         3878.5000000000005       0.08700856566429138      -32.690655770111974      32.69077155973004        13045.61571119551
143.29999999999998        3878.5000000000005       2154851.313539624        -32.69068446690384       2154851.3137875954       13045.61571094216
48.14735122975616         3878.5000000000005       1.4901161193847656E-8    2.9802322387695312E-8    3.332000937312528E-8     275000.0000000003
47.790580672850446        3878.5000000000005       -1.1920928955078125E-7   -2.9802322387695312E-8   1.228781230931777E-7     275000.0000000002
45.43223938078948         3878.5000000000005       2.421438694000244E-8     -2.3748725652694702E-8   3.391664053244543E-8     275000.0000000002
44.80165419505348         3878.5000000000005       -5.21540641784668E-8     -4.470348358154297E-8    6.869095904598301E-8     275000.0000000002
42.40667809333684         3878.5000000000005       -6.705522537231445E-8    0                        6.705522537231445E-8     275000.00000000006
38.062793681468214        3878.5000000000005       -3.725290298461914E-8    -1.4901161193847656E-8   4.012260442327338E-8     274999.99999999977
36.76901366641584         3878.5000000000005       0                        -2.0489096641540527E-8   2.0489096641540527E-8    274999.9999999997
23.678139288286708        3878.5000000000005       2.2351741790771484E-8    -2.3283064365386963E-9   2.2472680568720502E-8    275000.00000000006
34.870531047743995        3878.5000000000005       1.4901161193847656E-8    1.1175870895385742E-8    1.862645149230957E-8     274999.99999999977
143.26605258274162        3878.5000000000005       0.09375172853469849      -32.690327882766724      32.690462316544235       13045.61571399939
143.29310456803128        3878.5000000000005       0.08782479166984558      -32.69061227329075       32.69073024569289        13045.615711542623
143.25844029768567        3878.5000000000005       0.09550511837005615      -32.69024645164609       32.690385961272995       13045.615714720167
149.6234058208983         3878.5000000000005       -419693.78011744097      -1496479.8523691837      1554218.3944401639       2842.9693131137064
150                       3878.5000000000005       -247595.9151254939       -1418419.9733904563      1439867.6877059967       2968.618020612769
141.4167603093374         3878.5000000000005       2760617.9971483946       -32.76087000966072       2760617.997342785        17937.733458796825
143.41938676915862        3878.5000000000005       2154649.082982231        -31300.101929817327      2154876.41575497         12788.36704642793
138.62793039053096        3878.5000000000005       2816044.8326844275       -70.57366283703595       2816044.83356876         25713.60351655357
133.71749190420164        3878.5000000000005       2822072.6580376476       -33.97968867421422       2822072.658242217        39063.17253253628
137.13990017529008        3878.5000000000005       2751678.6806583395       -165.83448680117726      2751678.685655485        29525.7462379699
132.29077523862586        3878.5000000000005       2756512.5269855503       -34.23539427295327       2756512.5271981494       42703.29028165339
126.64548768715115        3878.5000000000005       2780776.6822414156       -35.35359422117472       2780776.6824661507       58111.80136591878
120.58445089098534        3878.5000000000005       2818183.3656159258       -36.80805315424502       2818183.365856299        74753.27899973972
115.4317610619366         3878.5000000000005       2838551.233558372        -38.243216625207296      2838551.2338159936       88917.9793552334
109.91561151367412        3878.5000000000005       2871108.2004476963       -403.58474804461         2871108.228813163        104196.30532973785
113.61308933894946        3878.5000000000005       2778034.049968527        -299.7482508867979       2778034.0661398578       93752.03761610115
107.91081304334568        3878.5000000000005       2815525.1142487675       -40.80670744180679       2815525.114544483        109535.07160130315
106.87789065779967        3878.5000000000005       2842657.8816770166       -40.991085551679134      2842657.881972562        112457.17805677446
101.9482844715657         3878.5000000000005       2865593.0543914065       -43.09257564693689       2865593.054715418        126191.01751776824
99.07559773328643         3878.5000000000005       2831333.22844439         -44.35091235398083       2831333.2287917533       134139.98333284192
96.08663276915912         3878.5000000000005       2918889.413027684        317.61265331692994       2918889.430307852        142732.8767774156
90.5225814183926          3878.5000000000005       2970678.6071673892       -655.2833170294762       2970678.6794398017       158592.74750903458
94.77953183355878         3878.5000000000005       2838433.1398838423       -46.4832259264157        2838433.1402644557       146229.4322653775
84.1634730634904          3878.5000000000005       2927568.4901008457       -341.8960810005665       2927568.510065012        176587.9408637632
81.31827906368976         3878.5000000000005       3029665.5405219216       561.1363746728748        3029665.5924870684       185062.6841234312
88.86764235180851         3878.5000000000005       2899959.200926766        -49.90196453034878       2899959.2013561176       163064.6030727612
78.60684359489503         3878.5000000000005       2993920.5027506873       -57.70945799290117       2993920.503306878        192807.52165705655
56.50407097871515         3878.5000000000005       3202311.4684701487       -76.8803392201662        3202311.469393011        260314.1655966256
52.229241563929826        3878.5000000000005       3460950.009585824        1946.423434495926        3460950.556915874        274551.7832718359
71.51984418144215         3878.5000000000005       3133569.968302965        -65.02292384207249       3133569.968977592        214056.85621944958
66.51337486570452         3878.5000000000005       3205560.6783944964       -71.74821073125929       3205560.679197446        229267.9341127954
70.81369046620298         3878.5000000000005       3009957.768439423        -1028.932960897684       3009957.944306177        215906.84130539597
57.474130002227284        3878.5000000000005       3331207.540779382        -81.59229885389796       3331207.5417786147       257447.5378373973
64.34901160805296         3878.5000000000005       3144639.711353738        -266.34577789902687      3144639.7226332612       235660.6149894667
63.70304283259562         3878.5000000000005       3176601.0855072103       114.26970428228378       3176601.0875624833       237702.27707792632
51.851113441892586        3878.5000000000005       -1.4901161193847656E-8   -7.450580596923828E-9    1.666000468656264E-8     275000
148.0296519799103         3878.5000000000005       1947750.6475243606       -7520547.125675263       7768678.24371907         1270.5785435222929
148.0409053694635         3878.5000000000005       1391532.3825550182       -7451808.882853188       7580621.214535713        1251.7894171391329
148.018313962802          3878.5000000000005       1477564.8803578038       -7481684.540386093       7626191.810957749        1284.1474408087488
148.37336466658957        3878.5000000000005       -1804189.26422498        -3344973.3685555095      3800519.1405241294       1733.4204891315183
148.43113850709992        3878.5000000000005       -1590982.5192788318      -3042757.3914976716      3433598.392381458        1830.5039237867168
148.1700937738529         3878.5000000000005       -1744216.8780292955      -5951065.986780632       6201409.428236424        1342.8012779346338
148.19035222310478        3878.5000000000005       -1756519.5915695392      -5430650.834040943       5707655.346710872        1378.2610239918686
148.30940913521363        3878.5000000000005       -1814058.039877682       -3793774.3237358034      4205178.972586293        1616.1492362575914
148.26644333158166        3878.5000000000005       -2113792.8133278545      -4257077.555174381       4752981.103312527        1531.7676020303556
148.1156712073443         3878.5000000000005       -1364901.6781831142      -6985053.615520865       7117157.480540119        1260.2734204053966
147.62897088676337        3878.5000000000005       3492701.0515316324       -2864715.064516481       4517250.605870549        2673.0200296054777
147.71761136705194        3878.5000000000005       3639911.580339942        -3329998.312086299       4933340.153606927        2355.7451050692803
147.7480145730817         3878.5000000000005       3796905.415984841        -3538113.5977075025      5189868.839211425        2242.8259632785134
147.8407299343411         3878.5000000000005       3976648.4022880234       -4521588.398553198       6021502.649783587        1886.5351494290617
147.84285783449394        3878.5000000000005       3732555.6761267465       -4548685.368502259       5884089.603074764        1878.0609448574223
147.84571720814293        3878.5000000000005       3744419.951874409        -4600858.3354817405      5931996.1395104565       1867.3712113149834
147.9326018645503         3878.5000000000005       3781032.0266304724       -6014492.112360463       7104246.5157151995       1533.8387717090259
148.460039658079          3878.5000000000005       -1534844.1251010918      -2931759.5576970866      3309223.5633915025       1876.3286209448443
148.54746564930585        3878.5000000000005       -1364125.81628351        -2639999.6575482264      2971605.194925111        2003.266318774054
148.57464668761884        3878.5000000000005       -1325514.2123824693      -2539718.439347379       2864813.724902372        2039.5518287132927
148.58163140711747        3878.5000000000005       -1305415.8574157357      -2522953.315943294       2840669.6385221784       2048.739982992356
148.60567503807158        3878.5000000000005       -1269608.8690758396      -2473921.4874485414      2780682.3275044626       2079.7264812733956
148.68951104505925        3878.5000000000005       -1129179.7912201062      -2277368.537282899       2541939.1132570296       2180.269126956706
149.33611005531483        3878.5000000000005       -559890.5397592466       -1625259.5840850717      1718995.6754373412       2703.2511226561296
149.52646342128256        3878.5000000000005       -461763.73238501325      -1546037.4250414148      1613523.3076019778       2800.7456017119534
149.25519502931053        3878.5000000000005       -616398.8235476743       -1667900.519133972       1778156.2505579565       2655.6613804456856
147.49596842123697        3878.5000000000005       3236250.5545874685       -2396577.226213909       4027021.238244821        3119.901199332046
147.51101822466092        3878.5000000000005       3275284.059329426        -2437211.120754348       4082582.97116251         3070.9025413681006
147.59464810956308        3878.5000000000005       3413667.3291710457       -2728743.583929315       4370259.280761861        2791.4389399364786
147.45227351549005        3878.5000000000005       3182285.360891916        -2297237.6375578493      3924823.675218972        3260.324875946491
147.61705389224386        3878.5000000000005       3481903.611323581        -2825282.649956327       4483957.494300369        2714.6133986741597
147.2446830915137         3878.5000000000005       2925595.898057636        -1866213.3616111996      3470138.8545399504       3892.9632339839
147.32162245070373        3878.5000000000005       3019475.8159258664       -1994236.6656512348      3618592.831694239        3664.2582299773453
147.11730628298753        3878.5000000000005       2814661.4792346843       -1690212.4784655645      3283159.6770562786       4259.184696813403
147.11257321460334        3878.5000000000005       2809481.043497769        -1684374.4882280938      3275713.8382903608       4272.494422394717
148.7205415485074         3878.5000000000005       -1100004.737482205       -2215801.827785326       2473820.55988305         2214.803063476669
148.78219524162202        3878.5000000000005       -1013326.0058534294      -2118197.256076484       2348103.321787355        2279.863470834115
148.88420538383878        3878.5000000000005       -910072.0033833047       -1979799.8758521825      2178953.556128817        2377.955716049304
148.8989602150877         3878.5000000000005       -891077.8520391746       -1963649.1347202063      2156371.4111168706       2391.243547134659
149.00645901158327        3878.5000000000005       -796617.1960121151       -1852210.866294384       2016254.9566464052       2481.6193203481407
149.10130752191404        3878.5000000000005       -716595.4110200051       -1774744.0604264718      1913955.4496157872       2553.3823011434156
149.1656998829299         3878.5000000000005       -668597.3843603036       -1726832.127852494       1851748.271271506        2598.1827391586576
149.59629237189247        3878.5000000000005       -425569.960563852        -1518344.408265477       1576857.4867264829       2831.741843640742
147.36544565343297        3878.5000000000005       3063145.5373426187       -2084225.9481591508      3704977.5149009894       3531.2721489678884
147.10491373949884        3878.5000000000005       2813890.2271262323       -1675519.0273404717      3274956.8273942913       4294.069980719276
146.97701865288246        3878.5000000000005       2717418.978351826        -1525455.0088602193      3116308.535425113        4647.608908154601
146.80789591077135        3878.5000000000005       2622470.1363468394       -1365837.6310560927      2956833.1116990573       5099.108792219717
146.91586340381915        3878.5000000000005       2686252.4914609827       -1461659.1621468589      3058169.379574682        4812.727470142358
146.6949483232272         3878.5000000000005       2565853.4956090488       -1275710.1626604088      2865491.3330952898       5392.113111033567
146.6161998160534         3878.5000000000005       2538776.056128453        -1216265.5363176693      2815081.8314935802       5593.161472828175
146.3680215288437         3878.5000000000005       2448355.616801806        -1059613.821472831       2667813.088839098        6210.692760236376
146.38771060088888        3878.5000000000005       2456207.557096947        -1070182.7864187872      2679225.029721698        6162.409611395885
146.4444943399202         3878.5000000000005       2470484.912263619        -1108421.818035964       2707747.150016104        6022.76726919309
146.15302435503585        3878.5000000000005       2386008.0190269807       -946220.1828382164       2566781.4284179797       6729.922786778631
146.11383990420856        3878.5000000000005       2375100.8606711943       -923216.3632650226       2548221.448728768        6823.200375788179
146.10868841857646        3878.5000000000005       2374974.543336604        -920945.9229068384       2547281.9777982254       6835.437834290461
145.92022720394857        3878.5000000000005       2332488.456377089        -832706.10809201         2476671.528803551        7279.024931661407
145.72775086344123        3878.5000000000005       2296971.0221668333       -751219.5058049187       2416693.3240640885       7724.61402946317
145.7808288232671         3878.5000000000005       2307156.0860267095       -773202.4098480586       2433271.7012049705       7602.425192622223
145.7100501580128         3878.5000000000005       2296379.454102427        -743024.1166982874       2413595.540934527        7765.292640304166
145.46159807908217        3878.5000000000005       2257492.0467696483       -647607.5639926232       2348545.485650358        8330.67421645738
145.42161716319947        3878.5000000000005       2253936.1280255504       -632461.4611576796       2340990.2966626147       8420.910125263112
145.14875358374903        3878.5000000000005       2222899.818873248        -535555.3852865547       2286504.5758659984       9031.113770039607
145.04200610567366        3878.5000000000005       2211224.6172381258       -501223.10496637225      2267319.763251762        9267.779570553186
144.8705631440186         3878.5000000000005       2197920.1254906952       -446283.95233012736      2242771.1082819914       9645.692204727806
144.8298005389754         3878.5000000000005       2194820.78697747         -433961.0883807242       2237311.0005488694       9735.218174277135
144.6324702671433         3878.5000000000005       2180462.9736445174       -372651.43628206104      2212077.72747654         10166.90990700489
144.52333124616652        3878.5000000000005       2176661.29263499         -339622.43817508966      2202997.4542353465       10404.726461915694
144.1555045818988         3878.5000000000005       2159917.5132868215       -233248.22654023394      2172475.178083122        11201.922103077773
144.08954385777133        3878.5000000000005       2160381.161110342        -215606.9625635147       2171113.337342465        11344.469038857293
143.70415134290417        3878.5000000000005       2152407.8809455596       -109134.94805141911      2155172.875396018        12175.137010426646
141.0192402563033         3878.5000000000005       2768315.842121803        -20.246121749281883      2768315.842195838        19036.66596481891
143.60152263113366        3878.5000000000005       2153236.3898885334       -81640.6723736797        2154783.5506439693       12396.158710642747
133.76964656526002        3878.5000000000005       2820531.741548704        -292.79076997190714      2820531.7567455606       38916.04106274865
110.7103403145133         3878.5000000000005       2851224.8219833933       -270.1673274561763       2851224.834783223        101922.45389927826
90.73947422858762         3878.5000000000005       2964085.100877718        501.6251998990774        2964085.1433238406       157949.1611046204
53.52868620641603         3878.5000000000005       3382120.308347691        -865.047248378396        3382120.418974555        270105.8396719774
66.65718587655009         3878.5000000000005       3197286.194688661        -1190.3438342809677      3197286.4162700754       228807.66506930263
150.47864202385276        3878.5000000000005       -874554.0505560203       -1202359.437208902       1486779.4064989097       3409.1683684272175
393.6273987732295         3878.5000000000005       46358.94001287232        -27815.80299361511       54063.57567990395        5258.417159645048
500                       3878.5000000000005       52508.94699940237        4.536198786123739E-12    52508.94699940237        -9.108850305868519E-13
150.9338089792581         3878.5000000000005       -703492.3209733957       -1075980.353115365       1285548.5856080276       3768.3056496360823
151.74179022549586        3878.5000000000005       -610811.9509838745       -896046.9121673768       1084431.329439268        4305.982960260719
152.02211666925598        3878.5000000000005       -554479.1413817238       -855106.9465175399       1019144.2528955186       4469.31391419483
153.09547426868494        3878.5000000000005       -472425.5371730039       -712891.6312143293       855219.484125934         5020.401714371919
153.1627715568002         3878.5000000000005       -464486.6455950306       -707134.3984963351       846041.9029060542        5051.927538923141
154.59135660583195        3878.5000000000005       -387319.6328435992       -582315.4761762838       699362.4323485731        5646.191553215666
155.07031689723087        3878.5000000000005       -350807.74390026415      -557621.5823061322       658792.76121857          5822.958404943027
155.87026077017416        3878.5000000000005       -340036.451354733        -529857.186308996        629581.9455267169        6107.986718073636
158.67731484940245        3878.5000000000005       -242541.00217924314      -406639.3387752343       473478.2883910004        6934.5462088659415
168.8737298055584         3878.5000000000005       -150911.15612639938      -233214.522334766        277782.63169471116       8940.446944605676
168.96881975577605        3878.5000000000005       -176860.30879605073      -288336.99809472455      338256.99297680694       8957.270772101303
169.09059015874763        3878.5000000000005       -149170.68054030265      -254874.27985308523      295318.11739797785       8974.29281128912