% Model:              RadialGradingFinal.mph
% Version:            COMSOL 4.3.2.164
% Date:               Mar 19 2014, 20:25
% Dimension:          2
% Nodes:              181
% Expressions:        4
% Description:        Electric field, r component, Electric field, z component, Electric field norm, Electric potential
% Length unit:        mm
% r                       z                        es.Er (V/m)              es.Ez (V/m)              es.normE (V/m)           V (V)
49.68274773390245         5500                     1.6689300537109375E-6    -9.5367431640625E-7      1.922192036699903E-6     275000.00000000023
50                        5500                     128059.03746366501       1.0313381514701471E-7    128059.03746366501       275000.00000000006
0                         5500                     -8.940696716308594E-8    0                        8.940696716308594E-8     275000
17.984616134598525        5500                     1.4901161193847656E-8    -1.30385160446167E-8     1.9800189533707965E-8    275000.0000000007
52.000000000000014        5500                     -941979.5255699158       2404044.039194107        2582005.6485177646       274999.99999999994
52.099999999999994        5500                     3114239.9021468163       1616572.1228170395       3508816.837110852        275000
49.64423003224394         5500                     4.76837158203125E-7      -2.384185791015625E-7    5.331201499700045E-7     275000.00000000035
49.03932266210651         5500                     6.556510925292969E-7     -1.7881393432617188E-7   6.795975119466412E-7     275000.0000000004
48.914396907317744        5500                     7.152557373046875E-7     -1.1920928955078125E-7   7.251217997429632E-7     275000.0000000004
47.99581535585424         5500                     0                        -2.9802322387695312E-8   2.9802322387695312E-8    275000.00000000064
47.55555381719399         5500                     2.682209014892578E-7     1.4901161193847656E-8    2.686345037418596E-7     275000.0000000007
45.02903089131704         5500                     0                        1.4901161193847656E-7    1.4901161193847656E-7    275000.0000000009
44.94236480216258         5500                     1.4156103134155273E-7    2.9802322387695312E-8    1.4466410755327046E-7    275000.0000000009
44.84732501903787         5500                     2.9802322387695312E-8    -3.725290298461914E-8    4.7706993203109864E-8    275000.0000000009
41.3448423689948          5500                     -1.30385160446167E-8     0                        1.30385160446167E-8      275000.000000001
37.76090697726554         5500                     -4.0046870708465576E-8   -3.725290298461914E-8    5.469488672921815E-8     275000.00000000076
33.758430668442756        5500                     -2.2351741790771484E-8   -6.332993507385254E-8    6.71586259354649E-8      275000.0000000008
22.636844200521153        5500                     -4.190951585769653E-8    -4.936009645462036E-8    6.475203967008254E-8     275000.0000000007
27.427936011449436        5500                     1.4901161193847656E-8    3.725290298461914E-9     1.5359765386647212E-8    275000.0000000009
63.28568998766608         5500                     517386.818372041         40595.83694081195        518977.01471459056       268096.55895096314
63.513513513513544        5500                     2062727.3164945543       123915.71200281009       2066446.003624094        267978.94512925105
50.02504993911946         5500                     129005.05151367188       2646.1617448329926       129032.18779833562       274996.795090524
62.306772770975414        5500                     526911.5193612128        42331.802717611194       528609.2420274777        268607.6403816318
62.67809870309712         5500                     523164.21676796675       41595.72389411926        524815.2074327838        268412.6788340239
62.855421150925196        5500                     521493.12639784813       41309.06398701668        523126.67648255656       268320.0571356255
61.612172605764485        5500                     533850.4509611726        43976.12760217488        535658.6635072096        268976.0199239402
61.95314041320727         5500                     530367.2079259157        43126.74976795912        532117.7424110943        268794.58357526636
60.87382051165292         5500                     541439.2368929386        46193.11946451664        543406.1570621654        269372.9973227532
60.99567623305276         5500                     540245.2109516859        45780.0936344862         542181.4317453281        269307.08437933575
60.520323257905005        5500                     545310.948727414         47442.62300670147        547370.8370746           269565.07963934523
60.084392019346836        5500                     550167.3988807946        49035.24504862726        552348.2796644146        269803.8199543606
59.957790166378516        5500                     551393.5159225464        49533.82065603137        553613.9528500084        269873.55512361793
59.18765617884085         5500                     560330.207778573         53264.71882337332        562856.1734764148        270301.6415899498
59.18447854886777         5500                     560495.0244998932        53311.79207289219        563024.70608594          270303.42216705246
59.18046288769961         5500                     560383.4169459343        53142.68537890911        562897.6096922802        270305.673018231
58.538984027390356        5500                     568383.6236439347        57016.708755135536       571236.2459647304        270667.66969111754
58.35788360150825         5500                     570464.6630561091        58217.10834732652        573427.5573252862        270770.79981738917
57.791479705683614        5500                     578103.2434030771        62507.405047118664       581472.7299872987        271096.0874610286
57.737645981749644        5500                     578910.5333764255        62998.26204484701        582328.2465026479        271127.226885089
57.67135222559889         5500                     579821.0509746075        63606.30244863033        583299.4195646734        271165.6352196375
57.23208580138462         5500                     586150.3467895389        67546.87956491113        590029.4992459726        271421.6750084362
56.79546081386499         5500                     592738.7394653559        72259.6407596916         597127.0124066559        271679.02579586057
57.02001785182542         5500                     589261.4915279448        69809.52840267122        593382.2340225072        271546.30859765597
56.65768012897077         5500                     595007.2061944008        73886.8324739933         599577.2172425385        271760.8600387377
56.22420190021008         5500                     602680.5373916626        79848.72541970015        607947.0775502207        272020.36986070103
56.18575874513546         5500                     602984.5542960167        80413.42228908837        608322.8511274331        272043.55302692327
56.1258239425821          5500                     604352.9572067857        81050.61929273605        609763.6425471127        272079.72931911837
55.804982922547396        5500                     610316.2326586843        86421.27031135559        616404.5261100194        272274.57393012603
55.57533340062402         5500                     615263.6612478495        90769.95364809036        621923.2728700421        272415.29142276803
55.565621714139134        5500                     615276.8055716604        90972.4858827591         621965.8677629791        272421.2677033842
55.49400345738309         5500                     616907.2145612985        92375.03260850906        623784.9453354923        272465.3910673633
55.28438428347935         5500                     621865.8517853022        96777.5152605176         629351.2731985684        272595.200092007
55.266875747616275        5500                     622209.9149976969        97200.3968718648         629756.3778744041        272606.09106459655
55.206005251090104        5500                     623568.4121470451        98716.29718375206        631333.8831056496        272644.0011063045
54.92393401571149         5500                     630550.6288552582        105642.19926149026       639339.0100835128        272820.87589293806
54.852687008967855        5500                     632649.0313637257        107727.32636713982       641755.3846534305        272865.8920575808
54.71982082786078         5500                     636618.7215363979        111587.10763263702       646324.2833133036        272950.21250108985
54.651712073809314        5500                     638458.8174414635        113777.99394845963       648517.6123095561        272993.63447233924
54.46794860093053         5500                     644678.6504328251        120059.11465620995       655762.7264002748        273111.5234442942
54.4576055830188          5500                     644981.9494638443        120453.72646164894       656133.2298799374        273118.1929356366
54.22412434890621         5500                     653430.5952060223        129702.61854559183       666178.888894627         273269.7364156132
54.22244907003773         5500                     653482.4409914017        129778.04604917765       666244.431061471         273270.8311375094
54.21968759427334         5500                     653851.938088417         129984.96306657791       666647.168722255         273272.6365784524
54.00871488352155         5500                     662336.8669806719        139575.32286214828       676883.5912576439        273411.4514135726
53.90445430166456         5500                     667422.0705571175        145089.6742039621        683010.4199991109        273480.77973713743
53.846790605599615        5500                     670633.0541930199        148233.75931692123       686820.1662571396        273519.36077049514
53.712576610295834        5500                     677355.8972816467        156444.62576830387       695187.695887959         273609.8187016173
53.61770116731036         5500                     683876.5139009953        162643.17315089703       702950.8432585957        273674.39433287695
53.407271439406315        5500                     698807.3829879761        179376.54231071472       721462.1975196286        273819.74952306505
53.5084283730822          5500                     690433.9198827818        171093.3930644989        711317.0508816914        273749.48078737955
53.326425992282495        5500                     705084.2783746719        187062.74347758293       729476.7368521712        273876.4942057405
53.271277286218705        5500                     710556.5799102783        192490.95172595978       736168.0648806748        273915.53247608617
53.18539489394141         5500                     718680.8717639446        201960.72475767136       746518.8073880171        273976.89892056066
53.14509497418749         5500                     723488.9219999313        206893.50191628933       752489.9609907154        274005.96926310996
53.108534134267714        5500                     727973.7439165115        211085.03920078278       757959.5408768326        274032.4880097369
53.00629090411344         5500                     740121.0361528397        225406.28233623505       773684.134691022         274107.5388750762
52.88005585651173         5500                     759702.3641710281        247252.11239147186       798925.0836023954        274202.25855655817
52.914203923335904        5500                     754891.8746397495        240993.13184385002       792426.2943599377        274176.39832391887
52.85971022788584         5500                     765469.8258839846        251208.99769195914       805636.4036339571        274217.79930356063
52.7059530293026          5500                     797757.9499049187        284508.39318084717       846972.7105561586        274337.8007505035
52.73218313332831         5500                     793085.7075954061        277094.31431310624       840098.921923339         274316.93675319105
52.649575657291614        5500                     815513.439065218         303256.8308156729        870072.9134574553        274383.27533847187
52.58127902725714         5500                     836491.8474845886        322650.3614463806        896561.1338049739        274439.6868913444
52.531318030449924        5500                     861210.6846556664        339613.6064642966        925754.419411956         274482.05757115205
52.473811737740995        5500                     883692.1247016191        367692.160631299         957135.9862889781        274532.2304567867
52.405315238107924        5500                     933987.0035312176        410734.24488306046       1020310.9049132429       274594.5133692036
52.37363348354688         5500                     958472.4115327597        430288.7536569834        1050627.3245985487       274624.520850969
52.346722068499716        5500                     992161.3414399624        443104.07141017914       1086611.8651792014       274650.64117449825
52.28387916449298         5500                     1057781.1898338795       512946.54628276825       1175591.4277119401       274715.0533453545
52.24841314504631         5500                     1135640.7082691193       566845.5331244469        1269249.2571205725       274754.1733063813
52.20168240291849         5500                     1278134.816090107        630759.4219489098        1425302.0930592273       274810.3464093893
52.16662462711571         5500                     1405780.6316623688       742119.5762872696        1589641.6734175803       274858.5463561152
51.62294218359784         5500                     -54246.71155977249       311519.63750600815       316207.51140180696       274861.5955132576
51.64756746163368         5500                     -64089.46691894531       325329.873742342         331582.5485745032        274863.04299554887
51.68123403030246         5500                     -88059.26928091049       346649.49962067604       357659.4895896836        274865.6041584865
51.53549540038293         5500                     -11426.698221087456      275799.7561020851        276036.36517351377       274858.7120478665
51.460223234717944        5500                     7874.316246271133        247873.65221881866       247998.6941914053        274858.5798419796
51.25969793826613         5500                     53312.035349845886       193767.11573839188       200967.33131212788       274865.41123353096
51.38956535956989         5500                     30132.33654010296        228421.50907468796       230400.39824905636       274859.91655041353
51.20163511900059         5500                     64991.343037724495       181673.160261631         192948.21022568582       274868.8385516286
51.73356900455313         5500                     -126136.88642549515      376507.88749980927       397075.1861633855        274871.2322992206
51.78935091170106         5500                     -171676.34734106064      415953.14943408966       449988.6562575846        274879.7239374863
51.84576161395696         5500                     -277957.9187505245       477320.3969845772        552354.3844070014        274892.5984504254
51.87528699677009         5500                     -366738.3347454071       528139.3465826809        642983.8066239425        274901.3617385277
51.899755495742355        5500                     -431176.15994787216      607764.6212554723        745178.3113840611        274911.12362352444
51.12586074035585         5500                     73600.38135933876        167635.9475464821        183081.47652356038       274874.0484319297
51.005132422373045        5500                     87823.82642710209        142739.93035173416       167593.8907153709        274883.8478992096
50.89430842161028         5500                     96891.4691889286         123421.87406897545       156910.5343827722        274894.10501697497
51.946901085292275        5500                     -419929.34013080597      667398.1856021881        788518.2235356307        274935.7036294122
50.858040709099996        5500                     100256.16031616926       117692.14145469666       154605.102896165         274897.6778208824
50.704045229741304        5500                     110202.69290351868       94215.78311800957        144987.05911814014       274913.9131285199
50.658301770571434        5500                     112179.73682338          87570.16560268402        142312.42833092372       274918.9814247457
50.48584095285136         5500                     119922.55989933014       63144.97987651825        135531.2098979948        274939.04383501987
50.54102742707204         5500                     117566.90339136124       71108.33795166016        137398.58987369985       274932.4907319482
50.45320385880625         5500                     120766.88156855106       58575.45617198944        134222.6648131719        274942.9725153757
50.296179691267355        5500                     125429.7278585434        37943.74952402711        131043.29345147872       274962.29895087064
50.088401966678276        5500                     127945.37932215631       11465.23999530077        128458.05470284964       274988.6521850104
140.51077201170037        5500                     926774.0491658319        43971.37044850178        927816.5872770066        164312.3723074267
150                       5500                     867699.468712613         40585.6015801395         868648.1215427641        155798.75538674355
64.20816320326085         5500                     2039884.0861685872       120795.242849648         2043457.5052344392       266554.002919489
162.85082727110628        5500                     799161.7487544045        36800.511853870004       800008.6114192175        145094.33013933123
470.4038691219142         5500                     260807.46865840122       -8782.288681186852       260955.2917694574        7707.342950844756
500                       5500                     249601.8491849298        -9.801008742988342E-11   249601.8491849298        3.4639214994265608E-12
140.38003056318252        5500                     927782.7660307549        44058.2520503439         928828.2890380817        164433.5938859553
140.0927424531223         5500                     929864.0051369742        44358.13586005755        930921.4318439307        164700.4254166621
132.99181979438876        5500                     979944.302452635         47217.09109014273        981081.1840007922        171480.1616003258
130.70930007164569        5500                     997366.0255210698        48282.030700434          998533.997093866         173736.87192475388
127.64660955282167        5500                     1021214.6393836588       49483.04116033763        1022412.7889722291       176828.0158566965
125.65580534319673        5500                     1037704.7201001102       50534.28401748836        1038934.4541303884       178877.52371067193
123.16438290051273        5500                     1058480.406220179        51658.18226072565        1059740.2220103366       181488.9079718947
119.26877786185898        5500                     1093467.5539096259       53599.49120669067        1094780.4331968657       185680.47763009588
118.36315325459935        5500                     1101431.4762934875       54202.96396090835        1102764.3711474354       186674.4786214174
112.47718958057632        5500                     1159570.2536537051       57255.74767915206        1160982.9429413753       193327.74824446978
113.03997833995084        5500                     1153640.606711212        57188.129633475095       1155057.1984209218       192676.74350903637
115.96338100878565        5500                     1125041.199889101        55350.72184550017        1126401.9725909247       189345.99127161608
111.76134593468086        5500                     1167189.4807446692       57668.28098090482        1168613.2442310855       194160.51285722695
107.45730694314214        5500                     1214048.0572443306       60272.98362699244        1215543.301513374        199284.31172249353
105.49582522807111        5500                     1236889.9909344167       61467.317496046424       1238416.3600315934       201688.0526425874
104.27878816418962        5500                     1251207.3276408613       62363.41829307377        1252760.5408390632       203202.1336459095
101.5064619144673         5500                     1285473.7151934132       64052.182217396796       1287068.511968173        206718.38736702077
96.59386502218818         5500                     1351270.623581741        67717.7599831596         1352966.3680861117       213192.74219037985
98.19477351858296         5500                     1328934.0716962218       66530.82839940488        1330598.4059973203       211047.29112860252
100.88142304955359        5500                     1293566.831627883        64633.718368813396       1295180.5532195035       207524.42071765967
96.16745921452376         5500                     1357211.1019073278       68036.49083583057        1358915.3539590894       213770.19456701484
94.50239663331647         5500                     1381148.193384692        69436.25226293877        1382892.5212098449       216050.00035729603
92.45158395168505         5500                     1412089.6487856805       71138.51764454693        1413880.4280773993       218914.04763310842
91.17344365237602         5500                     1431701.8347743899       72271.83562119119        1433524.8033851422       220731.3862860501
89.68110139704065         5500                     1455852.7739932612       73617.4493264854         1457712.8758398243       222886.01094537452
88.8151017894286          5500                     1469812.6409541965       74387.1536193788         1471693.8024372945       224152.8414913179
86.24847814595356         5500                     1513713.1663856208       76886.00663974881        1515664.543395467        227981.67531788457
87.14030517183856         5500                     1498491.5073408782       76084.83132277429        1500421.8403936115       226638.49436508946
85.95281353904672         5500                     1518986.7147998363       77373.36230826378        1520956.0404342015       228430.05373118137
83.52365755145908         5500                     1563316.9815165997       79828.26494458318        1565353.8055603388       232173.7519709166
83.20032622950093         5500                     1569626.6335585564       80303.26933777332        1571679.4787241772       232680.26667035866
81.34475025072362         5500                     1605460.9700936526       82489.37475102395        1607578.7456422988       235625.99991812915
79.42540371780701         5500                     1644451.2154759588       85070.93164008949        1646650.1946346927       238744.8757219419
80.43028928775212         5500                     1624062.226019889        83698.353025347          1626217.5525691          237102.6347256766
78.92187462388127         5500                     1655124.866226688        85685.78635454923        1657341.3579540907       239575.6305484986
77.10101045588866         5500                     1694408.0051267743       88341.10484169424        1696709.3559718311       242625.04678694782
76.81675570300513         5500                     1700668.6620141566       88769.26079773903        1702983.816605313        243107.5624081461
76.70174193871122         5500                     1703271.2400116175       88972.03110457957        1705593.4273353624       243303.31333681958
75.03289431017586         5500                     1741345.853447169        91655.34371677041        1743756.3142106435       246177.59903247998
73.31436159151254         5500                     1782477.867587611        94832.03281804919        1784998.7290998502       249205.55451098245
73.24223572290605         5500                     1784425.4835898578       94928.51610037684        1786948.7204880607       249334.1793393068
73.20450072596873         5500                     1785199.8190576732       94868.8684552759         1787718.796725462        249401.53223711823
71.44975293996006         5500                     1829618.2866993546       98586.62595719844        1832272.4682323604       252572.9400024483
71.36489590541117         5500                     1831836.8499626815       98772.07034934685        1834497.7968812871       252728.29011496378
69.78274238306022         5500                     1873681.863308229        102428.80639333092       1876479.5190114279       255659.53617614048
68.69386633432369         5500                     1904032.1379499435       105206.78525093198       1906936.5091709448       257716.2868776544
68.1119989873773          5500                     1920286.3425075896       106766.5997537896        1923252.127008875        258828.91691815056
67.88498636212408         5500                     1927039.0094044507       107501.49287673831       1930035.2107506262       259265.6318430956
67.49447427112969         5500                     1938452.781954432        108603.39376422018       1941492.6950684062       260020.30013692507
65.17865489954158         5500                     2008744.053720653        116620.49383041263       2012126.4902931256       264589.6074118175
66.15063982445082         5500                     1978164.889346622        112982.83141371608       1981388.7679196107       262651.9430075078
64.76417886877545         5500                     2021594.9811487086       118277.13844295777       2025052.0361916386       265424.84383145085
165.1277465333505         5500                     787581.6766558611        35742.69134045346        788392.3118526184        143287.705223214
186.07975922809615        5500                     698127.6151590683        31167.849250920117       698823.0118382022        127745.69013349043
204.3571207236854         5500                     634674.7782724244        25288.10246976139        635178.3704611424        115572.55690366504
232.62660703746252        5500                     558773.6767863166        20917.313784393817       559165.052453436         98768.36638232095
265.0487939831781         5500                     484232.124212954         16269.303783975542       484505.35638463794       81840.6508328794
413.28731737049014        5500                     317573.6656973971        1590.1235614717007       317577.64662743954       24216.50937590481
